
                                 *****************
                                 * O   R   C   A *
                                 *****************

                                            #,                                       
                                            ###                                      
                                            ####                                     
                                            #####                                    
                                            ######                                   
                                           ########,                                 
                                     ,,################,,,,,                         
                               ,,#################################,,                 
                          ,,##########################################,,             
                       ,#########################################, ''#####,          
                    ,#############################################,,   '####,        
                  ,##################################################,,,,####,       
                ,###########''''           ''''###############################       
              ,#####''   ,,,,##########,,,,          '''####'''          '####       
            ,##' ,,,,###########################,,,                        '##       
           ' ,,###''''                  '''############,,,                           
         ,,##''                                '''############,,,,        ,,,,,,###''
      ,#''                                            '''#######################'''  
     '                                                          ''''####''''         
             ,#######,   #######,   ,#######,      ##                                
            ,#'     '#,  ##    ##  ,#'     '#,    #''#        ######   ,####,        
            ##       ##  ##   ,#'  ##            #'  '#       #        #'  '#        
            ##       ##  #######   ##           ,######,      #####,   #    #        
            '#,     ,#'  ##    ##  '#,     ,#' ,#      #,         ##   #,  ,#        
             '#######'   ##     ##  '#######'  #'      '#     #####' # '####'        



                  #######################################################
                  #                        -***-                        #
                  #          Department of theory and spectroscopy      #
                  #    Directorship and core code : Frank Neese         #
                  #        Max Planck Institute fuer Kohlenforschung    #
                  #                Kaiser Wilhelm Platz 1               #
                  #                 D-45470 Muelheim/Ruhr               #
                  #                      Germany                        #
                  #                                                     #
                  #                  All rights reserved                #
                  #                        -***-                        #
                  #######################################################


                         Program Version 5.0.3 -  RELEASE  -


 With contributions from (in alphabetic order):
   Daniel Aravena         : Magnetic Suceptibility
   Michael Atanasov       : Ab Initio Ligand Field Theory (pilot matlab implementation)
   Alexander A. Auer      : GIAO ZORA, VPT2 properties, NMR spectrum
   Ute Becker             : Parallelization
   Giovanni Bistoni       : ED, misc. LED, open-shell LED, HFLD
   Martin Brehm           : Molecular dynamics
   Dmytro Bykov           : SCF Hessian
   Vijay G. Chilkuri      : MRCI spin determinant printing, contributions to CSF-ICE
   Dipayan Datta          : RHF DLPNO-CCSD density
   Achintya Kumar Dutta   : EOM-CC, STEOM-CC
   Dmitry Ganyushin       : Spin-Orbit,Spin-Spin,Magnetic field MRCI
   Miquel Garcia          : C-PCM and meta-GGA Hessian, CC/C-PCM, Gaussian charge scheme
   Yang Guo               : DLPNO-NEVPT2, F12-NEVPT2, CIM, IAO-localization
   Andreas Hansen         : Spin unrestricted coupled pair/coupled cluster methods
   Benjamin Helmich-Paris : MC-RPA, TRAH-SCF, COSX integrals
   Lee Huntington         : MR-EOM, pCC
   Robert Izsak           : Overlap fitted RIJCOSX, COSX-SCS-MP3, EOM
   Marcus Kettner         : VPT2
   Christian Kollmar      : KDIIS, OOCD, Brueckner-CCSD(T), CCSD density, CASPT2, CASPT2-K
   Simone Kossmann        : Meta GGA functionals, TD-DFT gradient, OOMP2, MP2 Hessian
   Martin Krupicka        : Initial AUTO-CI
   Lucas Lang             : DCDCAS
   Marvin Lechner         : AUTO-CI (C++ implementation), FIC-MRCC
   Dagmar Lenk            : GEPOL surface, SMD
   Dimitrios Liakos       : Extrapolation schemes; Compound Job, initial MDCI parallelization
   Dimitrios Manganas     : Further ROCIS development; embedding schemes
   Dimitrios Pantazis     : SARC Basis sets
   Anastasios Papadopoulos: AUTO-CI, single reference methods and gradients
   Taras Petrenko         : DFT Hessian,TD-DFT gradient, ASA, ECA, R-Raman, ABS, FL, XAS/XES, NRVS
   Peter Pinski           : DLPNO-MP2, DLPNO-MP2 Gradient
   Christoph Reimann      : Effective Core Potentials
   Marius Retegan         : Local ZFS, SOC
   Christoph Riplinger    : Optimizer, TS searches, QM/MM, DLPNO-CCSD(T), (RO)-DLPNO pert. Triples
   Tobias Risthaus        : Range-separated hybrids, TD-DFT gradient, RPA, STAB
   Michael Roemelt        : Original ROCIS implementation
   Masaaki Saitow         : Open-shell DLPNO-CCSD energy and density
   Barbara Sandhoefer     : DKH picture change effects
   Avijit Sen             : IP-ROCIS
   Kantharuban Sivalingam : CASSCF convergence, NEVPT2, FIC-MRCI
   Bernardo de Souza      : ESD, SOC TD-DFT
   Georgi Stoychev        : AutoAux, RI-MP2 NMR, DLPNO-MP2 response
   Willem Van den Heuvel  : Paramagnetic NMR
   Boris Wezisla          : Elementary symmetry handling
   Frank Wennmohs         : Technical directorship


 We gratefully acknowledge several colleagues who have allowed us to
 interface, adapt or use parts of their codes:
   Stefan Grimme, W. Hujo, H. Kruse, P. Pracht,  : VdW corrections, initial TS optimization,
                  C. Bannwarth, S. Ehlert          DFT functionals, gCP, sTDA/sTD-DF
   Ed Valeev, F. Pavosevic, A. Kumar             : LibInt (2-el integral package), F12 methods
   Garnet Chan, S. Sharma, J. Yang, R. Olivares  : DMRG
   Ulf Ekstrom                                   : XCFun DFT Library
   Mihaly Kallay                                 : mrcc  (arbitrary order and MRCC methods)
   Jiri Pittner, Ondrej Demel                    : Mk-CCSD
   Frank Weinhold                                : gennbo (NPA and NBO analysis)
   Christopher J. Cramer and Donald G. Truhlar   : smd solvation model
   Lars Goerigk                                  : TD-DFT with DH, B97 family of functionals
   V. Asgeirsson, H. Jonsson                     : NEB implementation
   FAccTs GmbH                                   : IRC, NEB, NEB-TS, DLPNO-Multilevel, CI-OPT
                                                   MM, QMMM, 2- and 3-layer-ONIOM, Crystal-QMMM,
                                                   LR-CPCM, SF, NACMEs, symmetry and pop. for TD-DFT,
                                                   nearIR, NL-DFT gradient (VV10), updates on ESD,
                                                   ML-optimized integration grids
   S Lehtola, MJT Oliveira, MAL Marques          : LibXC Library
   Liviu Ungur et al                             : ANISO software


 Your calculation uses the libint2 library for the computation of 2-el integrals
 For citations please refer to: http://libint.valeyev.net

 Your ORCA version has been built with support for libXC version: 5.1.0
 For citations please refer to: https://tddft.org/programs/libxc/

 This ORCA versions uses:
   CBLAS   interface :  Fast vector & matrix operations
   LAPACKE interface :  Fast linear algebra routines
   SCALAPACK package :  Parallel linear algebra routines
   Shared memory     :  Shared parallel matrices
   BLAS/LAPACK       :  OpenBLAS 0.3.15  USE64BITINT DYNAMIC_ARCH NO_AFFINITY Haswell SINGLE_THREADED
        Core in use  :  Haswell
   Copyright (c) 2011-2014, The OpenBLAS Project


================================================================================

----- Orbital basis set information -----
Your calculation utilizes the basis: ZORA-def2-SVP 
   Exponents from def2-SVP [F. Weigend and R. Ahlrichs, Phys. Chem. Chem. Phys. 7, 3297 (2005)],
   recontracted for ZORA by D. A. Pantazis.

----- AuxJ basis set information -----
Your calculation utilizes the auxiliary basis: SARC/J 
   decontracted def2/J up to Kr:
   F. Weigend, Phys. Chem. Chem. Phys. 8, 1057 (2006)
   and SARC auxiliary basis sets beyond Kr:
   D. A. Pantazis and F. Neese, J. Chem. Theory Comput. 5, 2229 (2009).
   D. A. Pantazis, X. Y. Chen, C. R. Landis and F. Neese, J. Chem. Theory Comput. 4, 908 (2008).
   D. A. Pantazis and F. Neese, Theor. Chem. Acc. 131, 1292 (2012).
   D. A. Pantazis and F. Neese, J. Chem. Theory Comput. 7, 677 (2011).

================================================================================
                                        WARNINGS
                       Please study these warnings very carefully!
================================================================================

WARNING: Old DensityContainer found on disk!
         Will remove this file - 
         If you want to keep old densities, please start your calculation with a different basename. 


WARNING: In scalar relativistic gradient/hessian runs we need the one-center approximation
  ===> : %rel OneCenter is turned on
INFO   : Checking CIS options ...

WARNING: (CIS/TDDFT): Spin-orbit needs TRIPLETS set to TRUE
  ===> : ajusting flags

WARNING: CIS/ROCIS methods need fully converged wavefunctions
  ===> : Setting SCFConvForced true
         You can overwrite this default with %scf ConvForced false 


INFO   : the flag for use of the SHARK integral package has been found!

================================================================================
                                       INPUT FILE
================================================================================
NAME = _0_force.inp
|  1> #
|  2> ! B3LYP PrintBasis PrintMOs ZORA EnGrad ZORA-def2-SVP SARC/J
|  3> %pal
|  4>     nprocs 2
|  5> end
|  6> %MaxCore 8000
|  7> %tddft
|  8>     DoSOC true
|  9>     IRoot 1
| 10>     NRoots 2
| 11> end
| 12> 
| 13> *xyz 0 1
| 14> S    -1.14715  -0.00000  -0.00143
| 15> C     0.05847  -1.24218   0.00038
| 16> C     1.32580  -0.71499  -0.00015
| 17> C     1.32580   0.71499  -0.00025
| 18> C     0.05847   1.24218   0.00020
| 19> H    -0.23693  -2.29085   0.00095
| 20> H     2.23004  -1.32655   0.00008
| 21> H     2.23004   1.32655  -0.00011
| 22> H    -0.23693   2.29085   0.00063
| 23> *
| 24> 
| 25> 
| 26> 
| 27>                          ****END OF INPUT****
================================================================================

                     *******************************
                     * Energy+Gradient Calculation *
                     *******************************

---------------------------------
CARTESIAN COORDINATES (ANGSTROEM)
---------------------------------
  S     -1.147150   -0.000000   -0.001430
  C      0.058470   -1.242180    0.000380
  C      1.325800   -0.714990   -0.000150
  C      1.325800    0.714990   -0.000250
  C      0.058470    1.242180    0.000200
  H     -0.236930   -2.290850    0.000950
  H      2.230040   -1.326550    0.000080
  H      2.230040    1.326550   -0.000110
  H     -0.236930    2.290850    0.000630

----------------------------
CARTESIAN COORDINATES (A.U.)
----------------------------
  NO LB      ZA    FRAG     MASS         X           Y           Z
   0 S    16.0000    0    32.060   -2.167799   -0.000000   -0.002702
   1 C     6.0000    0    12.011    0.110492   -2.347380    0.000718
   2 C     6.0000    0    12.011    2.505399   -1.351135   -0.000283
   3 C     6.0000    0    12.011    2.505399    1.351135   -0.000472
   4 C     6.0000    0    12.011    0.110492    2.347380    0.000378
   5 H     1.0000    0     1.008   -0.447733   -4.329079    0.001795
   6 H     1.0000    0     1.008    4.214165   -2.506816    0.000151
   7 H     1.0000    0     1.008    4.214165    2.506816   -0.000208
   8 H     1.0000    0     1.008   -0.447733    4.329079    0.001191

--------------------------------
INTERNAL COORDINATES (ANGSTROEM)
--------------------------------
 S      0   0   0     0.000000000000     0.00000000     0.00000000
 C      1   0   0     1.731049974120     0.00000000     0.00000000
 C      2   1   0     1.372608795652   111.55769543     0.00000000
 C      3   2   1     1.429980003497   112.58656731     0.07801868
 C      4   3   2     1.372608767093   112.58656471     0.00000000
 H      2   1   3     1.089481644545   120.12370689   180.04756009
 H      3   2   1     1.091629820086   123.34195632   180.04414939
 H      4   3   2     1.091629804833   124.07146595   179.96612479
 H      5   4   3     1.089481580294   128.31857575   179.97386832

---------------------------
INTERNAL COORDINATES (A.U.)
---------------------------
 S      0   0   0     0.000000000000     0.00000000     0.00000000
 C      1   0   0     3.271210375218     0.00000000     0.00000000
 C      2   1   0     2.593854712793   111.55769543     0.00000000
 C      3   2   1     2.702270583592   112.58656731     0.07801868
 C      4   3   2     2.593854658825   112.58656471     0.00000000
 H      2   1   3     2.058821936124   120.12370689   180.04756009
 H      3   2   1     2.062881399583   123.34195632   180.04414939
 H      4   3   2     2.062881370761   124.07146595   179.96612479
 H      5   4   3     2.058821814707   128.31857575   179.97386832

---------------------
BASIS SET INFORMATION
---------------------
There are 3 groups of distinct atoms

 Group   1 Type S   : 10s7p1d contracted to 6s3p1d pattern {511111/511/1}
 Group   2 Type C   : 7s4p1d contracted to 3s2p1d pattern {511/31/1}
 Group   3 Type H   : 4s1p contracted to 2s1p pattern {31/1}

Atom   0S    basis set group =>   1
Atom   1C    basis set group =>   2
Atom   2C    basis set group =>   2
Atom   3C    basis set group =>   2
Atom   4C    basis set group =>   2
Atom   5H    basis set group =>   3
Atom   6H    basis set group =>   3
Atom   7H    basis set group =>   3
Atom   8H    basis set group =>   3

-------------------------
BASIS SET IN INPUT FORMAT
-------------------------

 # Basis set for element : H 
 NewGTO H 
 S 3 
   1      13.0107010000      0.0391113379
   2       1.9622572000      0.2855809567
   3       0.4445379600      0.7689998052
 S 1 
   1       0.1219496200      1.0000000000
 P 1 
   1       0.8000000000      1.0000000000
  end;

 # Basis set for element : C 
 NewGTO C 
 S 5 
   1    1238.4016938000      0.0057274083
   2     186.2900499200      0.0421360006
   3      42.2511763500      0.1866435633
   4      11.6765579300      0.4678258158
   5       3.5930506500      0.4421228295
 S 1 
   1       0.4024514700      1.0000000000
 S 1 
   1       0.1309018300     -1.0000000000
 P 3 
   1       9.4680970600      0.0570122528
   2       2.0103545100      0.3130476217
   3       0.5477100500      0.7605188875
 P 1 
   1       0.1526861400      1.0000000000
 D 1 
   1       0.8000000000      1.0000000000
  end;

 # Basis set for element : S 
 NewGTO S 
 S 5 
   1    9184.9303010000      0.0063290789
   2    1381.5105503000      0.0446502337
   3     313.8714758000      0.1977748827
   4      88.0538706200      0.4837716573
   5      27.0399149100      0.4131616927
 S 1 
   1      45.6487313000      1.0000000000
 S 1 
   1       4.9664522300      1.0000000000
 S 1 
   1       2.0116242000     -1.0000000000
 S 1 
   1       0.3566107700      1.0000000000
 S 1 
   1       0.1350722100     -1.0000000000
 P 5 
   1     261.9823343900      0.0095363152
   2      61.3068947400      0.0667249057
   3      19.1037298900      0.2468626320
   4       6.6567720400      0.4809145198
   5       2.3959635200      0.3898348140
 P 1 
   1       0.6177616200      1.0000000000
 P 1 
   1       0.1699337700     -1.0000000000
 D 1 
   1       0.5500000000      1.0000000000
  end;

---------------------------------
AUXILIARY/J BASIS SET INFORMATION
---------------------------------
There are 3 groups of distinct atoms

 Group   1 Type S   : 14s5p5d2f1g contracted to 14s5p5d2f1g pattern {11111111111111/11111/11111/11/1}
 Group   2 Type C   : 12s5p4d2f1g contracted to 12s5p4d2f1g pattern {111111111111/11111/1111/11/1}
 Group   3 Type H   : 5s2p1d contracted to 5s2p1d pattern {11111/11/1}

Atom   0S    basis set group =>   1
Atom   1C    basis set group =>   2
Atom   2C    basis set group =>   2
Atom   3C    basis set group =>   2
Atom   4C    basis set group =>   2
Atom   5H    basis set group =>   3
Atom   6H    basis set group =>   3
Atom   7H    basis set group =>   3
Atom   8H    basis set group =>   3

-------------------------------------
AUXILIARY/J BASIS SET IN INPUT FORMAT
-------------------------------------

 # Auxiliary/J basis set for element : H 
 NewAuxJGTO H 
 S 1 
   1      15.6752927000      1.0000000000
 S 1 
   1       3.6063578000      1.0000000000
 S 1 
   1       1.2080016000      1.0000000000
 S 1 
   1       0.4726794000      1.0000000000
 S 1 
   1       0.2018100000      1.0000000000
 P 1 
   1       2.0281365000      1.0000000000
 P 1 
   1       0.5358730000      1.0000000000
 D 1 
   1       2.2165124000      1.0000000000
  end;

 # Auxiliary/J basis set for element : C 
 NewAuxJGTO C 
 S 1 
   1    1861.0916331000      1.0000000000
 S 1 
   1     642.9939764000      1.0000000000
 S 1 
   1     235.1105725000      1.0000000000
 S 1 
   1      90.7028894000      1.0000000000
 S 1 
   1      36.7794552000      1.0000000000
 S 1 
   1      15.6046273000      1.0000000000
 S 1 
   1       6.8907294000      1.0000000000
 S 1 
   1       3.1478850000      1.0000000000
 S 1 
   1       1.4777287000      1.0000000000
 S 1 
   1       0.7076466000      1.0000000000
 S 1 
   1       0.3430122000      1.0000000000
 S 1 
   1       0.1669453000      1.0000000000
 P 1 
   1      13.5472892000      1.0000000000
 P 1 
   1       5.4669419000      1.0000000000
 P 1 
   1       2.1751721000      1.0000000000
 P 1 
   1       0.8582194000      1.0000000000
 P 1 
   1       0.3376720000      1.0000000000
 D 1 
   1       5.9287253000      1.0000000000
 D 1 
   1       1.9809209000      1.0000000000
 D 1 
   1       0.8055417000      1.0000000000
 D 1 
   1       0.3531244000      1.0000000000
 F 1 
   1       1.6755626000      1.0000000000
 F 1 
   1       0.5997536000      1.0000000000
 G 1 
   1       1.0024600000      1.0000000000
  end;

 # Auxiliary/J basis set for element : S 
 NewAuxJGTO S 
 S 1 
   1    7399.0303145000      1.0000000000
 S 1 
   1    2710.1675859000      1.0000000000
 S 1 
   1    1034.3279062000      1.0000000000
 S 1 
   1     410.4645411000      1.0000000000
 S 1 
   1     168.9762502000      1.0000000000
 S 1 
   1      71.9687889000      1.0000000000
 S 1 
   1      31.6172683000      1.0000000000
 S 1 
   1      14.2796836000      1.0000000000
 S 1 
   1       6.6060948000      1.0000000000
 S 1 
   1       3.1181477000      1.0000000000
 S 1 
   1       1.4954039000      1.0000000000
 S 1 
   1       0.7254779000      1.0000000000
 S 1 
   1       0.3544216000      1.0000000000
 S 1 
   1       0.1735525000      1.0000000000
 P 1 
   1      12.6998799000      1.0000000000
 P 1 
   1       4.4295784000      1.0000000000
 P 1 
   1       1.5232889000      1.0000000000
 P 1 
   1       0.5194667000      1.0000000000
 P 1 
   1       0.1766547000      1.0000000000
 D 1 
   1      16.8546461000      1.0000000000
 D 1 
   1       5.0810461000      1.0000000000
 D 1 
   1       1.5102323000      1.0000000000
 D 1 
   1       0.4451331000      1.0000000000
 D 1 
   1       0.1308362000      1.0000000000
 F 1 
   1       1.0809860000      1.0000000000
 F 1 
   1       0.4161474000      1.0000000000
 G 1 
   1       0.6707100000      1.0000000000
  end;


Checking for AutoStart:
The File: _0_force.gbw exists
Trying to determine its content:
     ... Fine, the file contains calculation information
     ... Fine, the calculation information was read
     ... Fine, the file contains a basis set
     ... Fine, the basis set was read
     ... Fine, the file contains a geometry
     ... Fine, the geometry was read
     ... Fine, the file contains a set of orbitals
     ... Fine, the orbitals can be read
     => possible old guess file was deleted
     => GBW file was renamed to GES file
     => GES file is set as startup file
     => Guess is set to MORead
     ... now leaving AutoStart



           ************************************************************
           *        Program running with 2 parallel MPI-processes     *
           *              working on a common directory               *
           ************************************************************
------------------------------------------------------------------------------
                           ORCA GTO INTEGRAL CALCULATION
                           -- RI-GTO INTEGRALS CHOSEN --
------------------------------------------------------------------------------
------------------------------------------------------------------------------
                   ___                                                        
                  /   \      - P O W E R E D   B Y -                         
                 /     \                                                     
                 |  |  |   _    _      __       _____    __    __             
                 |  |  |  | |  | |    /  \     |  _  \  |  |  /  |          
                  \  \/   | |  | |   /    \    | | | |  |  | /  /          
                 / \  \   | |__| |  /  /\  \   | |_| |  |  |/  /          
                |  |  |   |  __  | /  /__\  \  |    /   |      \           
                |  |  |   | |  | | |   __   |  |    \   |  |\   \          
                \     /   | |  | | |  |  |  |  | |\  \  |  | \   \       
                 \___/    |_|  |_| |__|  |__|  |_| \__\ |__|  \__/        
                                                                              
                      - O R C A' S   B I G   F R I E N D -                    
                                      &                                       
                       - I N T E G R A L  F E E D E R -                       
                                                                              
 v1 FN, 2020, v2 2021                                                         
------------------------------------------------------------------------------


Reading SHARK input file _0_force.SHARKINP.tmp ... ok
----------------------
SHARK INTEGRAL PACKAGE
----------------------

Number of atoms                             ...      9
Number of basis functions                   ...     96
Number of shells                            ...     46
Maximum angular momentum                    ...      2
Integral batch strategy                     ... SHARK/LIBINT Hybrid
RI-J (if used) integral strategy            ... SPLIT-RIJ (Revised 2003 algorithm where possible)
Printlevel                                  ...      1
Contraction scheme used                     ... SEGMENTED contraction
Coulomb Range Separation                    ... NOT USED
Exchange Range Separation                   ... NOT USED
Finite Nucleus Model                        ... NOT USED
Auxiliary Coulomb fitting basis             ... AVAILABLE
   # of basis functions in Aux-J            ...    421
   # of shells in Aux-J                     ...    155
   Maximum angular momentum in Aux-J        ...      4
Auxiliary J/K fitting basis                 ... NOT available
Auxiliary Correlation fitting basis         ... NOT available
Auxiliary 'external' fitting basis          ... NOT available
Integral threshold                          ...     2.500000e-11
Primitive cut-off                           ...     2.500000e-12
Primitive pair pre-selection threshold      ...     2.500000e-12

Calculating pre-screening integrals         ... done (  0.0 sec) Dimension = 46
Organizing shell pair data                  ... done (  0.0 sec)
Shell pair information
Total number of shell pairs                 ...      1081
Shell pairs after pre-screening             ...      1056
Total number of primitive shell pairs       ...      3825
Primitive shell pairs kept                  ...      2938
          la=0 lb=0:    336 shell pairs
          la=1 lb=0:    380 shell pairs
          la=1 lb=1:    120 shell pairs
          la=2 lb=0:    130 shell pairs
          la=2 lb=1:     75 shell pairs
          la=2 lb=2:     15 shell pairs

Calculating one electron integrals          ... done (  0.0 sec)
Calculating RI/J V-Matrix + Cholesky decomp.... done (  0.0 sec)
Calculating Nuclear repulsion               ... done (  0.0 sec) ENN=    201.570514527653 Eh

SHARK setup successfully completed in   0.2 seconds

Maximum memory used throughout the entire GTOINT-calculation: 9.9 MB


           ************************************************************
           *        Program running with 2 parallel MPI-processes     *
           *              working on a common directory               *
           ************************************************************
------------------------------------------------------------------------------
                          ORCA RELATIVISTIC HAMILTONIAN
------------------------------------------------------------------------------

Relativistic Method            ... ZORA(MP)
Treatment of potential         ... Van Wuellen
Nucleus model                  ... Point Nucleus
Speed of light used            ... 137.03598950000000


            *************************************************
            *         ZERO ORDER REGULAR APPROXIMATION      *
            *                     ZORA(MP)                  *
            *            Programmed by FN according to      *
            *                   C. van Wuellen              *
            *       J. Chem. Phys. (1998) vol 109, 392-399  *
            *************************************************

Terms included in model potential: +V(e,N)+V(C)+V(Xa)+V(VWN-V)
Basis function cutoff value   ... 1.000000e-11
Loading the fitted atomic densities (ZORA)   ... done
Calculating the cutoffs                      ... done
Number of fit functions                      ... 80
One center approximation for ZORA is active
Finding unique atoms                  ... 3 atom types
AtomType   0 (S ) Member=  0 NMembers=   1, NRad=2000 NumBF= 20
             ... doing numerical integration
             ... adding submatrices to 1 actual atoms
AtomType   1 (C ) Member=  1 NMembers=   4, NRad=2000 NumBF= 14
             ... doing numerical integration
             ... adding submatrices to 4 actual atoms
AtomType   2 (H ) Member=  5 NMembers=   4, NRad=2000 NumBF=  5
             ... doing numerical integration
             ... adding submatrices to 4 actual atoms
             ... done with one-center part

Maximum memory used throughout the entire REL-calculation: 0.8 MB


           ************************************************************
           *        Program running with 2 parallel MPI-processes     *
           *              working on a common directory               *
           ************************************************************
-------------------------------------------------------------------------------
                                 ORCA SCF
-------------------------------------------------------------------------------

------------
SCF SETTINGS
------------
Hamiltonian:
 Density Functional     Method          .... DFT(GTOs)
 Exchange Functional    Exchange        .... B88
   X-Alpha parameter    XAlpha          ....  0.666667
   Becke's b parameter  XBeta           ....  0.004200
 Correlation Functional Correlation     .... LYP
 LDA part of GGA corr.  LDAOpt          .... VWN-5
 Gradients option       PostSCFGGA      .... off
 Hybrid DFT is turned on
   Fraction HF Exchange ScalHFX         ....  0.200000
   Scaling of DF-GGA-X  ScalDFX         ....  0.720000
   Scaling of DF-GGA-C  ScalDFC         ....  0.810000
   Scaling of DF-LDA-C  ScalLDAC        ....  1.000000
   Perturbative correction              ....  0.000000
   Density functional embedding theory  .... OFF
   NL short-range parameter             ....  4.800000
 RI-approximation to the Coulomb term is turned on
   Number of AuxJ basis functions       .... 421
   RIJ-COSX (HFX calculated with COS-X)).... on

Relativistic Settings:
 Scalar relativistic method             .... ZORA
 Speed of light used       Velit        ....       137.035989
Orbital energies will be scaled


General Settings:
 Integral files         IntName         .... _0_force
 Hartree-Fock type      HFTyp           .... RHF
 Total Charge           Charge          ....    0
 Multiplicity           Mult            ....    1
 Number of Electrons    NEL             ....   44
 Basis Dimension        Dim             ....   96
 Nuclear Repulsion      ENuc            ....    201.5705145277 Eh

Convergence Acceleration:
 DIIS                   CNVDIIS         .... on
   Start iteration      DIISMaxIt       ....    12
   Startup error        DIISStart       ....  0.200000
   # of expansion vecs  DIISMaxEq       ....     5
   Bias factor          DIISBfac        ....   1.050
   Max. coefficient     DIISMaxC        ....  10.000
 Trust-Rad. Augm. Hess. CNVTRAH         .... auto
   Auto Start mean grad. ratio tolernc. ....  1.125000
   Auto Start start iteration           ....     1
   Auto Start num. interpolation iter.  ....    10
   Max. Number of Micro iterations      ....    16
   Max. Number of Macro iterations      .... Maxiter - #DIIS iter
   Number of Davidson start vectors     ....     2
   Converg. threshold I  (grad. norm)   ....   1.000e-05
   Converg. threshold II (energy diff.) ....   1.000e-08
   Grad. Scal. Fac. for Micro threshold ....   0.100
   Minimum threshold for Micro iter.    ....   0.010
   NR start threshold (gradient norm)   ....   0.001
   Initial trust radius                 ....   0.400
   Minimum AH scaling param. (alpha)    ....   1.000
   Maximum AH scaling param. (alpha)    .... 1000.000
   Orbital update algorithm             .... Taylor
   White noise on init. David. guess    .... on
   Maximum white noise                  ....   0.010
   Quad. conv. algorithm                .... NR
 SOSCF                  CNVSOSCF        .... on
   Start iteration      SOSCFMaxIt      ....   150
   Startup grad/error   SOSCFStart      ....  0.003300
 Level Shifting         CNVShift        .... on
   Level shift para.    LevelShift      ....    0.2500
   Turn off err/grad.   ShiftErr        ....    0.0010
 Zerner damping         CNVZerner       .... off
 Static damping         CNVDamp         .... on
   Fraction old density DampFac         ....    0.7000
   Max. Damping (<1)    DampMax         ....    0.9800
   Min. Damping (>=0)   DampMin         ....    0.0000
   Turn off err/grad.   DampErr         ....    0.1000
 Fernandez-Rico         CNVRico         .... off

SCF Procedure:
 Maximum # iterations   MaxIter         ....   125
 SCF integral mode      SCFMode         .... Direct
   Integral package                     .... SHARK and LIBINT hybrid scheme
 Reset frequency        DirectResetFreq ....    20
 Integral Threshold     Thresh          ....  2.500e-11 Eh
 Primitive CutOff       TCut            ....  2.500e-12 Eh

Convergence Tolerance:
 Convergence Check Mode ConvCheckMode   .... Total+1el-Energy
 Convergence forced     ConvForced      .... 1
 Energy Change          TolE            ....  1.000e-08 Eh
 1-El. energy change                    ....  1.000e-05 Eh
 Orbital Gradient       TolG            ....  1.000e-05
 Orbital Rotation angle TolX            ....  1.000e-05
 DIIS Error             TolErr          ....  5.000e-07


Diagonalization of the overlap matrix:
Smallest eigenvalue                        ... 1.087e-03
Time for diagonalization                   ...    0.002 sec
Threshold for overlap eigenvalues          ... 1.000e-08
Number of eigenvalues below threshold      ... 0
Time for construction of square roots      ...    0.003 sec
Total time needed                          ...    0.005 sec

---------------------
INITIAL GUESS: MOREAD
---------------------
Guess MOs are being read from file: _0_force.ges
Input Geometry matches current geometry (good)
Input basis set matches current basis set (good)
MOs were renormalized
MOs were reorthogonalized (Cholesky)
                      ------------------
                      INITIAL GUESS DONE (   0.0 sec)
                      ------------------
-------------------
DFT GRID GENERATION
-------------------

General Integration Accuracy     IntAcc      ... 4.388
Radial Grid Type                 RadialGrid  ... OptM3 with GC (2021)
Angular Grid (max. ang.)         AngularGrid ... 4 (Lebedev-302)
Angular grid pruning method      GridPruning ... 4 (adaptive)
Weight generation scheme         WeightScheme... Becke
Basis function cutoff            BFCut       ... 1.0000e-11
Integration weight cutoff        WCut        ... 1.0000e-14
Angular grids for H and He will be reduced by one unit
Partially contracted basis set               ... off
Rotationally invariant grid construction     ... off

Total number of grid points                  ...    44489
Total number of batches                      ...      699
Average number of points per batch           ...       63
Average number of grid points per atom       ...     4943
Time for grid setup =    0.321 sec

--------------------
COSX GRID GENERATION
--------------------

GRIDX 1
-------
General Integration Accuracy     IntAcc      ... 3.816
Radial Grid Type                 RadialGrid  ... OptM3 with GC (2021)
Angular Grid (max. ang.)         AngularGrid ... 1 (Lebedev-50)
Angular grid pruning method      GridPruning ... 4 (adaptive)
Weight generation scheme         WeightScheme... Becke
Basis function cutoff            BFCut       ... 1.0000e-11
Integration weight cutoff        WCut        ... 1.0000e-14
Angular grids for H and He will be reduced by one unit
Partially contracted basis set               ... on
Rotationally invariant grid construction     ... off

Total number of grid points                  ...     5601
Total number of batches                      ...       90
Average number of points per batch           ...       62
Average number of grid points per atom       ...      622
UseSFitting                                  ... on

GRIDX 2
-------
General Integration Accuracy     IntAcc      ... 4.020
Radial Grid Type                 RadialGrid  ... OptM3 with GC (2021)
Angular Grid (max. ang.)         AngularGrid ... 2 (Lebedev-110)
Angular grid pruning method      GridPruning ... 4 (adaptive)
Weight generation scheme         WeightScheme... Becke
Basis function cutoff            BFCut       ... 1.0000e-11
Integration weight cutoff        WCut        ... 1.0000e-14
Angular grids for H and He will be reduced by one unit
Partially contracted basis set               ... on
Rotationally invariant grid construction     ... off

Total number of grid points                  ...    12410
Total number of batches                      ...      197
Average number of points per batch           ...       62
Average number of grid points per atom       ...     1379
UseSFitting                                  ... on

GRIDX 3
-------
General Integration Accuracy     IntAcc      ... 4.338
Radial Grid Type                 RadialGrid  ... OptM3 with GC (2021)
Angular Grid (max. ang.)         AngularGrid ... 3 (Lebedev-194)
Angular grid pruning method      GridPruning ... 4 (adaptive)
Weight generation scheme         WeightScheme... Becke
Basis function cutoff            BFCut       ... 1.0000e-11
Integration weight cutoff        WCut        ... 1.0000e-14
Angular grids for H and He will be reduced by one unit
Partially contracted basis set               ... on
Rotationally invariant grid construction     ... off

Total number of grid points                  ...    27906
Total number of batches                      ...      440
Average number of points per batch           ...       63
Average number of grid points per atom       ...     3101
UseSFitting                                  ... on

Time for X-Grid setup             =    0.334 sec

--------------
SCF ITERATIONS
--------------
ITER       Energy         Delta-E        Max-DP      RMS-DP      [F,P]     Damp
               ***  Starting incremental Fock matrix formation  ***
                      *** Initiating the SOSCF procedure ***
                      *** Re-Reading the Fockian *** 
                      *** Removing any level shift *** 
ITER      Energy       Delta-E        Grad      Rot      Max-DP    RMS-DP
  0   -554.46882029 -554.4688202850  0.000000  0.000000  0.000000  0.000000
               *** Restarting incremental Fock matrix formation ***
                 **** Energy Check signals convergence ****
              ***Rediagonalizing the Fockian in SOSCF/NRSCF***

               *****************************************************
               *                     SUCCESS                       *
               *           SCF CONVERGED AFTER   1 CYCLES          *
               *****************************************************

Old exchange energy                            =     -9.451898149 Eh
New exchange energy                            =     -9.451881935 Eh
Exchange energy change after final integration =      0.000016214 Eh
Total energy after final integration           =   -554.468804071 Eh
Final COS-X integration done in                =     1.327 sec

----------------
TOTAL SCF ENERGY
----------------

Total Energy       :         -554.46880407 Eh          -15087.86321 eV

Components:
Nuclear Repulsion  :          201.57051453 Eh            5485.01255 eV
Electronic Energy  :         -756.03931860 Eh          -20572.87576 eV
One Electron Energy:        -1159.14090524 Eh          -31541.82759 eV
Two Electron Energy:          403.10158664 Eh           10968.95182 eV
Max COSX asymmetry :            0.00000151 Eh               0.00004 eV

Virial components:
Potential Energy   :        -1109.64025646 Eh          -30194.84645 eV
Kinetic Energy     :          555.17145239 Eh           15106.98324 eV
Virial Ratio       :            1.99873436


DFT components:
N(Alpha)           :       21.999998237587 electrons
N(Beta)            :       21.999998237587 electrons
N(Total)           :       43.999996475174 electrons
E(X)               :      -37.534692343233 Eh       
E(C)               :       -1.863417627057 Eh       
E(XC)              :      -39.398109970290 Eh       
DFET-embed. en.    :        0.000000000000 Eh       

---------------
SCF CONVERGENCE
---------------

  Last Energy change         ...    6.3665e-12  Tolerance :   1.0000e-08
  Last MAX-Density change    ...    2.2204e-15  Tolerance :   1.0000e-07
  Last RMS-Density change    ...    8.3650e-17  Tolerance :   5.0000e-09
  Last Orbital Gradient      ...    1.1418e-07  Tolerance :   1.0000e-05
  Last Orbital Rotation      ...    4.5245e-07  Tolerance :   1.0000e-05

             **** THE GBW FILE WAS UPDATED (_0_force.gbw) ****
             **** DENSITY _0_force.scfp WAS UPDATED ****
             **** ENERGY FILE WAS UPDATED (_0_force.en.tmp) ****
             **** THE GBW FILE WAS UPDATED (_0_force.gbw) ****
             **** DENSITY _0_force.scfp WAS UPDATED ****
----------------
ORBITAL ENERGIES
----------------

  NO   OCC          E(Eh)            E(eV) 
   0   2.0000     -89.473192     -2434.6893 
   1   2.0000     -10.204652      -277.6827 
   2   2.0000     -10.204627      -277.6820 
   3   2.0000     -10.186858      -277.1985 
   4   2.0000     -10.186785      -277.1965 
   5   2.0000      -8.020458      -218.2478 
   6   2.0000      -5.942678      -161.7085 
   7   2.0000      -5.938953      -161.6071 
   8   2.0000      -5.936109      -161.5297 
   9   2.0000      -0.871045       -23.7023 
  10   2.0000      -0.727961       -19.8088 
  11   2.0000      -0.710231       -19.3264 
  12   2.0000      -0.556756       -15.1501 
  13   2.0000      -0.544077       -14.8051 
  14   2.0000      -0.510472       -13.8906 
  15   2.0000      -0.410784       -11.1780 
  16   2.0000      -0.391882       -10.6637 
  17   2.0000      -0.384313       -10.4577 
  18   2.0000      -0.375968       -10.2306 
  19   2.0000      -0.341603        -9.2955 
  20   2.0000      -0.249665        -6.7937 
  21   2.0000      -0.236726        -6.4416 
  22   0.0000      -0.012510        -0.3404 
  23   0.0000       0.054450         1.4817 
  24   0.0000       0.061277         1.6674 
  25   0.0000       0.072862         1.9827 
  26   0.0000       0.107253         2.9185 
  27   0.0000       0.110523         3.0075 
  28   0.0000       0.140174         3.8143 
  29   0.0000       0.152314         4.1447 
  30   0.0000       0.276268         7.5176 
  31   0.0000       0.308233         8.3874 
  32   0.0000       0.346191         9.4203 
  33   0.0000       0.399505        10.8711 
  34   0.0000       0.410928        11.1819 
  35   0.0000       0.416704        11.3391 
  36   0.0000       0.444844        12.1048 
  37   0.0000       0.458740        12.4829 
  38   0.0000       0.487704        13.2711 
  39   0.0000       0.513843        13.9824 
  40   0.0000       0.523730        14.2514 
  41   0.0000       0.541010        14.7216 
  42   0.0000       0.576047        15.6750 
  43   0.0000       0.591812        16.1040 
  44   0.0000       0.629954        17.1419 
  45   0.0000       0.634269        17.2593 
  46   0.0000       0.659625        17.9493 
  47   0.0000       0.688152        18.7256 
  48   0.0000       0.702087        19.1048 
  49   0.0000       0.707199        19.2439 
  50   0.0000       0.714736        19.4490 
  51   0.0000       0.727935        19.8081 
  52   0.0000       0.770294        20.9608 
  53   0.0000       0.774109        21.0646 
  54   0.0000       0.780312        21.2334 
  55   0.0000       0.825773        22.4704 
  56   0.0000       0.915123        24.9018 
  57   0.0000       0.977270        26.5929 
  58   0.0000       1.135107        30.8878 
  59   0.0000       1.153259        31.3818 
  60   0.0000       1.184980        32.2449 
  61   0.0000       1.201411        32.6921 
  62   0.0000       1.258768        34.2528 
  63   0.0000       1.281869        34.8814 
  64   0.0000       1.309254        35.6266 
  65   0.0000       1.521522        41.4027 
  66   0.0000       1.578186        42.9446 
  67   0.0000       1.635529        44.5050 
  68   0.0000       1.670025        45.4437 
  69   0.0000       1.717671        46.7402 
  70   0.0000       1.749314        47.6013 
  71   0.0000       1.774143        48.2769 
  72   0.0000       1.798714        48.9455 
  73   0.0000       1.903254        51.7902 
  74   0.0000       1.934751        52.6473 
  75   0.0000       1.955920        53.2233 
  76   0.0000       1.965217        53.4763 
  77   0.0000       2.015041        54.8320 
  78   0.0000       2.048081        55.7311 
  79   0.0000       2.077711        56.5374 
  80   0.0000       2.151617        58.5485 
  81   0.0000       2.154366        58.6233 
  82   0.0000       2.329115        63.3784 
  83   0.0000       2.366200        64.3876 
  84   0.0000       2.371792        64.5397 
  85   0.0000       2.428345        66.0786 
  86   0.0000       2.530632        68.8620 
  87   0.0000       2.667898        72.5972 
  88   0.0000       2.677431        72.8566 
  89   0.0000       2.715813        73.9010 
  90   0.0000       2.729630        74.2770 
  91   0.0000       3.045731        82.8785 
  92   0.0000       3.054336        83.1127 
  93   0.0000       3.437334        93.5346 
  94   0.0000       6.428920       174.9398 
  95   0.0000     212.349303      5778.3183 
------------------
MOLECULAR ORBITALS
------------------
                      0         1         2         3         4         5   
                 -89.47319 -10.20465 -10.20463 -10.18686 -10.18678  -8.02046
                   2.00000   2.00000   2.00000   2.00000   2.00000   2.00000
                  --------  --------  --------  --------  --------  --------
  0S   1s         0.951815  0.000000 -0.000035 -0.000003  0.000000  0.290383
  0S   2s         0.035794  0.000000 -0.000059 -0.000004  0.000000  0.108058
  0S   3s         0.040340 -0.000000  0.001000  0.000059 -0.000000 -0.570595
  0S   4s         0.016517 -0.000001  0.002165  0.000115 -0.000000  0.518854
  0S   5s         0.005623 -0.000001  0.002679  0.000155 -0.000000 -0.048792
  0S   6s         0.004044 -0.000003  0.008412  0.005121 -0.000000 -0.025329
  0S   1pz        0.000000  0.000000 -0.000000 -0.000000 -0.000000 -0.000008
  0S   1px        0.000009  0.000000 -0.000344 -0.000044 -0.000000 -0.007049
  0S   1py       -0.000000 -0.000345 -0.000000  0.000000  0.000049 -0.000000
  0S   2pz        0.000000 -0.000000  0.000001  0.000002  0.000000 -0.000003
  0S   2px        0.000280 -0.000000  0.000986  0.000090 -0.000000 -0.002325
  0S   2py        0.000000  0.000954  0.000000 -0.000000 -0.000300 -0.000000
  0S   3pz        0.000001 -0.000000 -0.000001  0.000008  0.000000 -0.000007
  0S   3px        0.000886 -0.000000  0.001284  0.001331 -0.000000 -0.004945
  0S   3py        0.000000  0.001089  0.000000 -0.000000 -0.000311 -0.000000
  0S   1dz2       0.000025  0.000001 -0.002071 -0.000065  0.000000  0.000175
  0S   1dxz      -0.000000 -0.000000  0.000005 -0.000001  0.000000 -0.000000
  0S   1dyz       0.000000  0.000005 -0.000000  0.000000 -0.000000  0.000000
  0S   1dx2y2    -0.000004 -0.000000  0.000082  0.000647 -0.000000  0.000110
  0S   1dxy       0.000000  0.002794  0.000001 -0.000000 -0.000251 -0.000000
  1C   1s         0.000041  0.698328 -0.697927 -0.006564 -0.005807 -0.000196
  1C   2s        -0.000167  0.036929 -0.035832 -0.003777 -0.003299  0.001101
  1C   3s        -0.001164  0.021713 -0.025111 -0.010944 -0.012012  0.006658
  1C   1pz        0.000000 -0.000001  0.000002  0.000001  0.000001 -0.000001
  1C   1px        0.000103  0.000296 -0.000215 -0.001958 -0.002221 -0.000606
  1C   1py       -0.000071 -0.000443  0.000635 -0.000704 -0.000552  0.000424
  1C   2pz       -0.000000  0.000001 -0.000007 -0.000001  0.000000  0.000002
  1C   2px       -0.000224 -0.000714  0.001092  0.000159  0.002846  0.001116
  1C   2py        0.000169 -0.003291  0.001357  0.003396 -0.001850 -0.000939
  1C   1dz2       0.000099 -0.001635  0.001815  0.000893  0.001153 -0.000514
  1C   1dxz      -0.000000 -0.000001  0.000001  0.000001  0.000001  0.000001
  1C   1dyz       0.000000 -0.000003  0.000002  0.000001  0.000001 -0.000001
  1C   1dx2y2    -0.000002 -0.000377  0.000798 -0.000836 -0.000557  0.000001
  1C   1dxy       0.000197  0.001214 -0.001399 -0.000903 -0.001123 -0.000836
  2C   1s         0.000002  0.006660 -0.007359  0.698424  0.697565  0.000002
  2C   2s        -0.000065 -0.002604  0.003095  0.034631  0.039967  0.000252
  2C   3s         0.000181 -0.009056  0.008685  0.019472  0.037062 -0.001147
  2C   1pz        0.000000 -0.000001  0.000001  0.000001  0.000001 -0.000000
  2C   1px        0.000022  0.001802 -0.002060 -0.000090  0.000164 -0.000033
  2C   1py       -0.000021  0.000833 -0.001102 -0.002090  0.001427  0.000105
  2C   2pz       -0.000000 -0.000001  0.000000 -0.000002 -0.000004  0.000002
  2C   2px       -0.000040  0.003799  0.002121  0.003497  0.003056  0.000137
  2C   2py        0.000146  0.000739  0.000894 -0.001484 -0.000255 -0.000859
  2C   1dz2      -0.000020  0.001155 -0.000892 -0.000970 -0.002996  0.000096
  2C   1dxz       0.000000  0.000001 -0.000001 -0.000000 -0.000000 -0.000000
  2C   1dyz      -0.000000  0.000000 -0.000001 -0.000001 -0.000001  0.000000
  2C   1dx2y2    -0.000011 -0.001055  0.001060  0.001711 -0.000739 -0.000007
  2C   1dxy      -0.000017 -0.000437  0.000794 -0.000536 -0.000889  0.000093
  3C   1s         0.000002 -0.006655 -0.007364  0.698390 -0.697600  0.000002
  3C   2s        -0.000065  0.002602  0.003096  0.034629 -0.039968  0.000252
  3C   3s         0.000181  0.009051  0.008691  0.019470 -0.037063 -0.001147
  3C   1pz        0.000000  0.000001  0.000001  0.000001 -0.000002 -0.000000
  3C   1px        0.000022 -0.001800 -0.002061 -0.000090 -0.000164 -0.000033
  3C   1py        0.000021  0.000833  0.001103  0.002090  0.001427 -0.000105
  3C   2pz       -0.000000  0.000001  0.000000 -0.000002  0.000004  0.000001
  3C   2px       -0.000040 -0.003801  0.002118  0.003496 -0.003056  0.000137
  3C   2py       -0.000146  0.000739 -0.000894  0.001484 -0.000255  0.000859
  3C   1dz2      -0.000020 -0.001154 -0.000892 -0.000970  0.002996  0.000096
  3C   1dxz       0.000000 -0.000001 -0.000001 -0.000000  0.000000 -0.000000
  3C   1dyz       0.000000  0.000000  0.000001  0.000001 -0.000000 -0.000000
  3C   1dx2y2    -0.000011  0.001054  0.001061  0.001711  0.000739 -0.000007
  3C   1dxy       0.000017 -0.000436 -0.000795  0.000536 -0.000890 -0.000093
  4C   1s         0.000041 -0.697886 -0.698369 -0.006563  0.005807 -0.000196
  4C   2s        -0.000167 -0.036906 -0.035856 -0.003777  0.003299  0.001101
  4C   3s        -0.001164 -0.021697 -0.025124 -0.010944  0.012012  0.006658
  4C   1pz        0.000000  0.000001  0.000002  0.000001 -0.000001 -0.000001
  4C   1px        0.000103 -0.000296 -0.000215 -0.001957  0.002221 -0.000606
  4C   1py        0.000071 -0.000443 -0.000635  0.000704 -0.000552 -0.000424
  4C   2pz       -0.000000 -0.000001 -0.000006 -0.000000  0.000000  0.000001
  4C   2px       -0.000224  0.000713  0.001093  0.000159 -0.002846  0.001116
  4C   2py       -0.000169 -0.003291 -0.001359 -0.003396 -0.001850  0.000939
  4C   1dz2       0.000099  0.001634  0.001816  0.000893 -0.001153 -0.000514
  4C   1dxz      -0.000000  0.000000  0.000001  0.000001 -0.000001  0.000001
  4C   1dyz      -0.000000 -0.000002 -0.000002 -0.000001  0.000001  0.000001
  4C   1dx2y2    -0.000002  0.000377  0.000799 -0.000836  0.000557  0.000001
  4C   1dxy      -0.000197  0.001213  0.001400  0.000903 -0.001123  0.000836
  5H   1s        -0.000089 -0.004370  0.003948  0.000418 -0.000313  0.000392
  5H   2s        -0.000074  0.004171 -0.005174 -0.000470 -0.002192  0.000364
  5H   1pz        0.000000  0.000001 -0.000001 -0.000000 -0.000000  0.000000
  5H   1px        0.000009 -0.000574  0.000610  0.000348  0.000116  0.000027
  5H   1py        0.000002 -0.002667  0.002808  0.000217  0.000458 -0.000112
  6H   1s         0.000031 -0.000531 -0.000128 -0.004247 -0.003744 -0.000171
  6H   2s         0.000071 -0.002160  0.000749  0.003628  0.006519 -0.000364
  6H   1pz        0.000000  0.000000 -0.000000  0.000001  0.000001 -0.000000
  6H   1px        0.000001 -0.000615  0.000287  0.002136  0.002402 -0.000004
  6H   1py       -0.000009 -0.000097 -0.000077 -0.001261 -0.001940  0.000063
  7H   1s         0.000031  0.000531 -0.000127 -0.004247  0.003745 -0.000171
  7H   2s         0.000071  0.002159  0.000751  0.003628 -0.006519 -0.000364
  7H   1pz        0.000000 -0.000000 -0.000000  0.000001 -0.000001 -0.000000
  7H   1px        0.000001  0.000615  0.000288  0.002136 -0.002403 -0.000004
  7H   1py        0.000009 -0.000097  0.000077  0.001261 -0.001940 -0.000063
  8H   1s        -0.000089  0.004367  0.003951  0.000418  0.000313  0.000392
  8H   2s        -0.000074 -0.004168 -0.005177 -0.000470  0.002193  0.000364
  8H   1pz        0.000000 -0.000001 -0.000000 -0.000000  0.000000  0.000000
  8H   1px        0.000009  0.000574  0.000610  0.000348 -0.000116  0.000027
  8H   1py       -0.000002 -0.002665 -0.002810 -0.000217  0.000458  0.000112
                      6         7         8         9        10        11   
                  -5.94268  -5.93895  -5.93611  -0.87104  -0.72796  -0.71023
                   2.00000   2.00000   2.00000   2.00000   2.00000   2.00000
                  --------  --------  --------  --------  --------  --------
  0S   1s        -0.000000 -0.002232 -0.000003 -0.047333  0.056160 -0.000000
  0S   2s        -0.000000 -0.000845 -0.000001 -0.020027  0.023836 -0.000000
  0S   3s         0.000000  0.004231  0.000007  0.140849 -0.168866  0.000000
  0S   4s        -0.000000 -0.005254 -0.000007 -0.161105  0.193039 -0.000000
  0S   5s         0.000000 -0.004393 -0.000005 -0.413645  0.518286 -0.000000
  0S   6s         0.000000 -0.008140 -0.000005  0.120573 -0.150571  0.000000
  0S   1pz        0.000073 -0.002557  0.982698  0.000061 -0.000040  0.000004
  0S   1px       -0.000000 -0.982214 -0.002557  0.053954 -0.018830  0.000000
  0S   1py       -0.982087 -0.000000  0.000073  0.000000 -0.000000 -0.062217
  0S   2pz        0.000004 -0.000128  0.048023 -0.000099  0.000073 -0.000007
  0S   2px       -0.000000 -0.049703 -0.000127 -0.088994  0.036980 -0.000000
  0S   2py       -0.050091 -0.000000  0.000004 -0.000000  0.000000  0.103473
  0S   3pz        0.000001 -0.000026  0.008171  0.000059 -0.000014  0.000005
  0S   3px        0.000000 -0.011308 -0.000023  0.053747 -0.002214  0.000000
  0S   3py       -0.009941 -0.000000  0.000001  0.000000 -0.000000 -0.072120
  0S   1dz2       0.000000  0.000326  0.000001  0.023846 -0.011510  0.000000
  0S   1dxz       0.000000 -0.000001  0.000269 -0.000056  0.000028 -0.000003
  0S   1dyz      -0.000001  0.000000  0.000000  0.000002 -0.000002  0.000044
  0S   1dx2y2    -0.000000 -0.000445 -0.000001 -0.007866 -0.012232  0.000000
  0S   1dxy      -0.001389 -0.000000  0.000000 -0.000000  0.000000  0.036575
  1C   1s         0.000093 -0.000080 -0.000000  0.123682 -0.004093  0.170187
  1C   2s         0.000098  0.000308  0.000001 -0.241352  0.012201 -0.343556
  1C   3s         0.004372  0.005377  0.000005  0.041408 -0.005516  0.127123
  1C   1pz        0.000001 -0.000000 -0.000167  0.000094 -0.000059  0.000074
  1C   1px        0.000670 -0.000328 -0.000000 -0.004184 -0.139271 -0.045121
  1C   1py       -0.000277  0.000279  0.000000 -0.083226  0.015379 -0.008739
  1C   2pz       -0.000000 -0.000001  0.001322  0.000019 -0.000021  0.000021
  1C   2px       -0.004701  0.000462 -0.000003  0.000703 -0.040399 -0.014669
  1C   2py       -0.004162 -0.000846  0.000003 -0.015654  0.008493 -0.015804
  1C   1dz2       0.000657 -0.000483 -0.000000  0.010430 -0.000083  0.008743
  1C   1dxz      -0.000002  0.000001  0.000124 -0.000007  0.000016 -0.000004
  1C   1dyz       0.000002 -0.000001 -0.000165  0.000019 -0.000009  0.000015
  1C   1dx2y2    -0.000235 -0.000298 -0.000001  0.001634 -0.003503 -0.005147
  1C   1dxy       0.001052 -0.000863 -0.000001  0.001579 -0.013531 -0.000753
  2C   1s        -0.000024  0.000018 -0.000000  0.109678  0.153124  0.105248
  2C   2s        -0.000011  0.000264  0.000002 -0.207817 -0.304291 -0.209505
  2C   3s        -0.010672 -0.000974 -0.000001  0.046123  0.078388  0.019376
  2C   1pz       -0.000000 -0.000000 -0.000022 -0.000011 -0.000033 -0.000039
  2C   1px        0.000024 -0.000059 -0.000000  0.067921 -0.000661  0.076595
  2C   1py       -0.000012 -0.000017  0.000000 -0.036805 -0.062129  0.092274
  2C   2pz        0.000002  0.000002 -0.000227 -0.000003  0.000000 -0.000005
  2C   2px       -0.004430  0.000122  0.000002  0.013107 -0.003830  0.001547
  2C   2py        0.001618 -0.000676 -0.000004 -0.006478 -0.020047  0.035814
  2C   1dz2      -0.000100  0.000129  0.000000  0.008430  0.007298  0.003902
  2C   1dxz      -0.000000 -0.000001  0.000000  0.000002  0.000004  0.000004
  2C   1dyz      -0.000000  0.000000  0.000079  0.000003  0.000002  0.000004
  2C   1dx2y2    -0.000130 -0.000074 -0.000000 -0.000955  0.006801 -0.009947
  2C   1dxy       0.000037  0.000244  0.000001  0.000678  0.000008 -0.006978
  3C   1s         0.000024  0.000018 -0.000000  0.109678  0.153124 -0.105248
  3C   2s         0.000011  0.000264  0.000002 -0.207817 -0.304291  0.209506
  3C   3s         0.010672 -0.000974 -0.000002  0.046123  0.078388 -0.019376
  3C   1pz        0.000000 -0.000000 -0.000022 -0.000015 -0.000041  0.000026
  3C   1px       -0.000024 -0.000059 -0.000000  0.067921 -0.000661 -0.076595
  3C   1py       -0.000012  0.000017 -0.000000  0.036805  0.062129  0.092273
  3C   2pz       -0.000002  0.000002 -0.000227 -0.000004 -0.000003 -0.000000
  3C   2px        0.004430  0.000122  0.000002  0.013107 -0.003830 -0.001547
  3C   2py        0.001618  0.000676  0.000004  0.006478  0.020047  0.035814
  3C   1dz2       0.000100  0.000129  0.000000  0.008430  0.007298 -0.003902
  3C   1dxz       0.000000 -0.000000  0.000000  0.000002  0.000004 -0.000003
  3C   1dyz      -0.000000  0.000000 -0.000079 -0.000001  0.000001  0.000004
  3C   1dx2y2     0.000130 -0.000074 -0.000000 -0.000955  0.006801  0.009947
  3C   1dxy       0.000037 -0.000244 -0.000001 -0.000678 -0.000008 -0.006978
  4C   1s        -0.000093 -0.000080 -0.000000  0.123682 -0.004093 -0.170187
  4C   2s        -0.000098  0.000308  0.000001 -0.241352  0.012202  0.343556
  4C   3s        -0.004372  0.005377  0.000005  0.041408 -0.005516 -0.127123
  4C   1pz       -0.000001 -0.000000 -0.000167  0.000082 -0.000057 -0.000072
  4C   1px       -0.000670 -0.000328 -0.000000 -0.004184 -0.139271  0.045121
  4C   1py       -0.000277 -0.000279 -0.000000  0.083226 -0.015379 -0.008739
  4C   2pz        0.000001 -0.000002  0.001322  0.000016 -0.000020 -0.000019
  4C   2px        0.004701  0.000462 -0.000003  0.000703 -0.040399  0.014669
  4C   2py       -0.004162  0.000846 -0.000003  0.015654 -0.008493 -0.015804
  4C   1dz2      -0.000657 -0.000483 -0.000000  0.010430 -0.000083 -0.008743
  4C   1dxz       0.000002  0.000001  0.000124 -0.000006  0.000014  0.000004
  4C   1dyz       0.000001  0.000001  0.000165 -0.000016  0.000008  0.000014
  4C   1dx2y2     0.000235 -0.000298 -0.000001  0.001634 -0.003503  0.005147
  4C   1dxy       0.001052  0.000863  0.000001 -0.001579  0.013531 -0.000753
  5H   1s        -0.000929  0.000123  0.000000 -0.038310  0.011542 -0.109017
  5H   2s        -0.001070  0.000995  0.000003 -0.011338  0.002786 -0.022869
  5H   1pz        0.000000  0.000000 -0.000153  0.000004 -0.000001  0.000007
  5H   1px        0.000043 -0.000134  0.000000 -0.001391 -0.001836 -0.003800
  5H   1py        0.000047  0.000084  0.000000 -0.005704  0.001459 -0.010729
  6H   1s         0.000263 -0.000037 -0.000001 -0.031596 -0.085197 -0.063993
  6H   2s         0.000286 -0.000323 -0.000002 -0.007555 -0.017319 -0.009836
  6H   1pz       -0.000000 -0.000000  0.000023  0.000001  0.000001  0.000001
  6H   1px        0.000064 -0.000063 -0.000000  0.004703  0.007821  0.007647
  6H   1py        0.000027  0.000086  0.000000 -0.003005 -0.006196 -0.002465
  7H   1s        -0.000263 -0.000037 -0.000001 -0.031596 -0.085196  0.063994
  7H   2s        -0.000286 -0.000323 -0.000001 -0.007555 -0.017319  0.009836
  7H   1pz        0.000000 -0.000000  0.000023  0.000000  0.000000 -0.000000
  7H   1px       -0.000064 -0.000063 -0.000000  0.004703  0.007821 -0.007647
  7H   1py        0.000027 -0.000086 -0.000000  0.003005  0.006196 -0.002465
  8H   1s         0.000929  0.000123  0.000000 -0.038310  0.011542  0.109017
  8H   2s         0.001070  0.000995  0.000003 -0.011338  0.002786  0.022869
  8H   1pz       -0.000000  0.000000 -0.000153  0.000003 -0.000001 -0.000006
  8H   1px       -0.000043 -0.000134  0.000000 -0.001391 -0.001836  0.003800
  8H   1py        0.000047 -0.000084 -0.000000  0.005704 -0.001459 -0.010729
                     12        13        14        15        16        17   
                  -0.55676  -0.54408  -0.51047  -0.41078  -0.39188  -0.38431
                   2.00000   2.00000   2.00000   2.00000   2.00000   2.00000
                  --------  --------  --------  --------  --------  --------
  0S   1s        -0.033987 -0.000000 -0.019314  0.000000  0.014227 -0.000000
  0S   2s        -0.014481 -0.000000 -0.008230  0.000000  0.006086 -0.000000
  0S   3s         0.103557  0.000000  0.058834 -0.000000 -0.043952  0.000000
  0S   4s        -0.117735 -0.000000 -0.067733  0.000000  0.049409 -0.000000
  0S   5s        -0.325710 -0.000000 -0.186467  0.000000  0.131075 -0.000000
  0S   6s         0.137939  0.000000  0.096132 -0.000000 -0.162605 -0.000000
  0S   1pz       -0.000044  0.000008 -0.000042 -0.000005  0.000439  0.000014
  0S   1px       -0.015731 -0.000000 -0.066018  0.000000  0.020870 -0.000000
  0S   1py       -0.000000 -0.104466 -0.000000  0.058253  0.000000 -0.158783
  0S   2pz        0.000071 -0.000013  0.000070  0.000009 -0.000778 -0.000026
  0S   2px        0.022636  0.000000  0.111874 -0.000000 -0.036003  0.000000
  0S   2py        0.000000  0.182046  0.000000 -0.107941 -0.000000  0.288548
  0S   3pz       -0.000085  0.000010 -0.000074 -0.000007  0.000799  0.000025
  0S   3px       -0.037564  0.000000 -0.110491  0.000000  0.013547 -0.000000
  0S   3py       -0.000000 -0.139004 -0.000000  0.075572  0.000000 -0.270189
  0S   1dz2      -0.004242 -0.000000 -0.008714  0.000000  0.007782 -0.000000
  0S   1dxz       0.000006 -0.000003  0.000036  0.000003 -0.000112 -0.000004
  0S   1dyz      -0.000001  0.000071  0.000001 -0.000005  0.000003  0.000056
  0S   1dx2y2    -0.009077 -0.000000  0.035128 -0.000000  0.023094  0.000000
  0S   1dxy      -0.000000  0.037778  0.000000 -0.039150 -0.000000  0.047061
  1C   1s        -0.125084  0.064326 -0.006558 -0.034229  0.008549 -0.026642
  1C   2s         0.261394 -0.137788  0.014934  0.086543 -0.015084  0.054868
  1C   3s        -0.090540  0.071958  0.027376 -0.099502  0.047974 -0.061429
  1C   1pz        0.000111  0.000035 -0.000085 -0.000312 -0.000704  0.000318
  1C   1px        0.048419  0.209303  0.092268  0.107656  0.190417  0.215308
  1C   1py       -0.145100  0.042170  0.183232  0.296213  0.115526 -0.160613
  1C   2pz        0.000041  0.000021 -0.000019 -0.000143 -0.000338  0.000138
  1C   2px       -0.001100  0.064204  0.037978  0.055769  0.092837  0.093506
  1C   2py       -0.047544 -0.006848  0.070416  0.119158  0.019251 -0.062144
  1C   1dz2      -0.003417  0.003728 -0.001294  0.000571  0.002785  0.002417
  1C   1dxz      -0.000005 -0.000020 -0.000005  0.000005 -0.000001 -0.000026
  1C   1dyz       0.000001  0.000014 -0.000008 -0.000013 -0.000029  0.000012
  1C   1dx2y2    -0.002428  0.006252 -0.006031  0.008509  0.013662 -0.010357
  1C   1dxy       0.004598  0.006265  0.003466 -0.004231 -0.008052  0.016909
  2C   1s         0.049057 -0.118511  0.025619 -0.012804  0.007676  0.025817
  2C   2s        -0.102804  0.247853 -0.052889  0.033965 -0.026016 -0.052652
  2C   3s         0.019960 -0.122207  0.052345  0.033651  0.015248  0.099152
  2C   1pz        0.000085  0.000052 -0.000004 -0.000028 -0.000380  0.000110
  2C   1px       -0.124966  0.037697 -0.249665 -0.230043 -0.054270 -0.199687
  2C   1py       -0.163177 -0.117175  0.089661  0.026855 -0.372708  0.014088
  2C   2pz        0.000038 -0.000000 -0.000006 -0.000034 -0.000213  0.000040
  2C   2px       -0.039508  0.005201 -0.080644 -0.026830 -0.024639 -0.051101
  2C   2py       -0.054219 -0.014171  0.029873  0.030662 -0.123241 -0.001279
  2C   1dz2       0.001333 -0.002596  0.000718  0.001792 -0.000937  0.001161
  2C   1dxz      -0.000010 -0.000001 -0.000006 -0.000001  0.000027 -0.000017
  2C   1dyz      -0.000000 -0.000005  0.000003  0.000005 -0.000012 -0.000009
  2C   1dx2y2     0.006105  0.005239  0.003274  0.008984  0.013900 -0.005041
  2C   1dxy       0.006717 -0.005267 -0.003771  0.012066 -0.003366  0.019639
  3C   1s         0.049057  0.118511  0.025619  0.012804  0.007676 -0.025817
  3C   2s        -0.102804 -0.247853 -0.052890 -0.033965 -0.026016  0.052652
  3C   3s         0.019960  0.122207  0.052345 -0.033651  0.015248 -0.099152
  3C   1pz        0.000062 -0.000034  0.000009  0.000028 -0.000433 -0.000120
  3C   1px       -0.124966 -0.037697 -0.249665  0.230043 -0.054270  0.199687
  3C   1py        0.163177 -0.117175 -0.089661  0.026855  0.372708  0.014088
  3C   2pz        0.000030  0.000002 -0.000002  0.000031 -0.000230 -0.000045
  3C   2px       -0.039508 -0.005201 -0.080644  0.026830 -0.024639  0.051101
  3C   2py        0.054219 -0.014171 -0.029873  0.030663  0.123241 -0.001279
  3C   1dz2       0.001333  0.002596  0.000718 -0.001792 -0.000937 -0.001161
  3C   1dxz      -0.000009  0.000002 -0.000006 -0.000001  0.000027  0.000014
  3C   1dyz       0.000001 -0.000005 -0.000002  0.000004  0.000014 -0.000008
  3C   1dx2y2     0.006105 -0.005239  0.003274 -0.008984  0.013900  0.005041
  3C   1dxy      -0.006717 -0.005267  0.003771  0.012066  0.003366  0.019639
  4C   1s        -0.125084 -0.064326 -0.006558  0.034229  0.008549  0.026642
  4C   2s         0.261394  0.137788  0.014934 -0.086543 -0.015084 -0.054868
  4C   3s        -0.090540 -0.071958  0.027376  0.099502  0.047973  0.061429
  4C   1pz        0.000092 -0.000040 -0.000059  0.000273 -0.000688 -0.000305
  4C   1px        0.048419 -0.209303  0.092268 -0.107656  0.190417 -0.215308
  4C   1py        0.145099  0.042170 -0.183232  0.296213 -0.115527 -0.160614
  4C   2pz        0.000035 -0.000020 -0.000009  0.000127 -0.000336 -0.000136
  4C   2px       -0.001100 -0.064204  0.037978 -0.055769  0.092837 -0.093506
  4C   2py        0.047545 -0.006848 -0.070416  0.119158 -0.019251 -0.062144
  4C   1dz2      -0.003417 -0.003728 -0.001294 -0.000571  0.002785 -0.002417
  4C   1dxz      -0.000005  0.000019 -0.000004 -0.000004 -0.000002  0.000024
  4C   1dyz      -0.000002  0.000012  0.000007 -0.000014  0.000032  0.000014
  4C   1dx2y2    -0.002428 -0.006252 -0.006031 -0.008509  0.013662  0.010357
  4C   1dxy      -0.004598  0.006265 -0.003466 -0.004231  0.008052  0.016909
  5H   1s         0.187886 -0.121572 -0.118417 -0.211779 -0.157510  0.120894
  5H   2s         0.052724 -0.042609 -0.024471 -0.102605 -0.081729  0.055969
  5H   1pz       -0.000006  0.000005  0.000004 -0.000000 -0.000015  0.000005
  5H   1px        0.004772  0.001707 -0.000589 -0.001159  0.002372  0.006036
  5H   1py        0.011034 -0.006664 -0.005321 -0.005019 -0.003763  0.002124
  6H   1s        -0.051601  0.165780 -0.185231 -0.152393  0.129238 -0.188167
  6H   2s        -0.019718  0.054998 -0.053270 -0.080279  0.070083 -0.097259
  6H   1pz        0.000002 -0.000002  0.000003  0.000002 -0.000011  0.000006
  6H   1px        0.000465 -0.009494  0.006236  0.001012 -0.006936  0.001976
  6H   1py       -0.005127  0.004198 -0.005882 -0.004337 -0.004517 -0.004681
  7H   1s        -0.051601 -0.165780 -0.185231  0.152393  0.129238  0.188167
  7H   2s        -0.019718 -0.054998 -0.053269  0.080279  0.070082  0.097259
  7H   1pz        0.000002  0.000001  0.000002 -0.000001 -0.000012 -0.000005
  7H   1px        0.000465  0.009494  0.006236 -0.001012 -0.006936 -0.001976
  7H   1py        0.005127  0.004198  0.005882 -0.004337  0.004517 -0.004681
  8H   1s         0.187886  0.121572 -0.118417  0.211779 -0.157510 -0.120894
  8H   2s         0.052724  0.042609 -0.024471  0.102605 -0.081729 -0.055969
  8H   1pz       -0.000004 -0.000004  0.000003  0.000001 -0.000016 -0.000005
  8H   1px        0.004772 -0.001707 -0.000589  0.001159  0.002372 -0.006036
  8H   1py       -0.011033 -0.006664  0.005321 -0.005019  0.003763  0.002124
                     18        19        20        21        22        23   
                  -0.37597  -0.34160  -0.24967  -0.23673  -0.01251   0.05445
                   2.00000   2.00000   2.00000   2.00000   0.00000   0.00000
                  --------  --------  --------  --------  --------  --------
  0S   1s        -0.000021 -0.022332  0.000003 -0.000000 -0.000007 -0.000000
  0S   2s        -0.000009 -0.009606  0.000001 -0.000000 -0.000003 -0.000000
  0S   3s         0.000065  0.070343 -0.000011  0.000000  0.000028  0.000000
  0S   4s        -0.000080 -0.073815 -0.000001 -0.000000 -0.000008 -0.000000
  0S   5s        -0.000261 -0.181308 -0.000062 -0.000001  0.000110 -0.000000
  0S   6s         0.000035  0.235741 -0.000258 -0.000001  0.000872  0.000000
  0S   1pz        0.140546 -0.000246 -0.200870 -0.000000 -0.125473  0.000012
  0S   1px       -0.000040 -0.216312  0.000420  0.000000  0.000107  0.000000
  0S   1py        0.000014  0.000000 -0.000015  0.000057 -0.000009 -0.165533
  0S   2pz       -0.249047  0.000444  0.360953  0.000000  0.224643 -0.000019
  0S   2px        0.000056  0.390353 -0.000769 -0.000000 -0.000172 -0.000000
  0S   2py       -0.000025 -0.000000  0.000026 -0.000120  0.000015  0.265187
  0S   3pz        0.279171 -0.000492 -0.496165 -0.000000 -0.490335  0.000076
  0S   3px       -0.000155 -0.429805  0.000931 -0.000000  0.000665  0.000000
  0S   3py        0.000027  0.000000 -0.000036  0.000097 -0.000034 -1.062180
  0S   1dz2      -0.000095 -0.029333  0.000037  0.000008 -0.000264  0.000000
  0S   1dxz      -0.042670  0.000056  0.007910 -0.000000 -0.068157  0.000013
  0S   1dyz      -0.000000 -0.000004  0.000000 -0.060759 -0.000000 -0.001799
  0S   1dx2y2    -0.000053  0.001823  0.000019  0.000004 -0.000125  0.000000
  0S   1dxy      -0.000004 -0.000000  0.000001  0.000013 -0.000005 -0.187351
  1C   1s         0.000016 -0.024827  0.000014 -0.000088 -0.000014 -0.097315
  1C   2s        -0.000039  0.060920 -0.000023  0.000249  0.000093  0.248336
  1C   3s         0.000133 -0.049061  0.000201  0.000168  0.000265 -1.145064
  1C   1pz       -0.238805 -0.000353 -0.016060  0.371585 -0.364327  0.003337
  1C   1px       -0.000268 -0.181774  0.000163 -0.000176 -0.000035 -0.229507
  1C   1py       -0.000645  0.119012 -0.000017  0.000509 -0.000193  0.137179
  1C   2pz       -0.138045 -0.000179  0.009038  0.289849 -0.468747  0.006601
  1C   2px       -0.000176 -0.052590  0.000030 -0.000320 -0.000463 -0.178861
  1C   2py       -0.000357  0.046470 -0.000043  0.000195 -0.000342  0.229069
  1C   1dz2       0.000030 -0.004117 -0.000012 -0.000022 -0.000022  0.003620
  1C   1dxz      -0.000594 -0.000001 -0.020965  0.005227  0.003899 -0.000517
  1C   1dyz      -0.014437 -0.000028  0.003730  0.006732  0.005898 -0.000051
  1C   1dx2y2    -0.000032 -0.007958  0.000026  0.000013  0.000033 -0.016644
  1C   1dxy       0.000048 -0.018039 -0.000006 -0.000014 -0.000005  0.006444
  2C   1s        -0.000061  0.033580 -0.000071 -0.000005 -0.000070  0.017029
  2C   2s         0.000148 -0.080626  0.000177  0.000017  0.000224 -0.030831
  2C   3s        -0.000219  0.062438 -0.000237 -0.000447 -0.000579  0.315343
  2C   1pz       -0.223837 -0.000432 -0.290485  0.219225  0.204600 -0.006892
  2C   1px       -0.000052  0.153934 -0.000226  0.000074 -0.000068  0.061503
  2C   1py        0.000941 -0.076751 -0.000155  0.000097  0.000072  0.094583
  2C   2pz       -0.115568 -0.000236 -0.206515  0.146233  0.272102 -0.011824
  2C   2px       -0.000099  0.066753 -0.000145 -0.000154 -0.000136  0.216062
  2C   2py        0.000347 -0.019608 -0.000125  0.000028 -0.000094  0.243619
  2C   1dz2      -0.000003 -0.000808 -0.000004  0.000011 -0.000019  0.000756
  2C   1dxz       0.011289  0.000020  0.001985 -0.014016  0.018199 -0.000093
  2C   1dyz      -0.006424 -0.000011 -0.010641 -0.013660  0.018827  0.000282
  2C   1dx2y2    -0.000043  0.008547 -0.000003  0.000018 -0.000012  0.013554
  2C   1dxy       0.000022 -0.004962  0.000002 -0.000019  0.000022 -0.010150
  3C   1s        -0.000059  0.033580 -0.000070  0.000005 -0.000070 -0.017029
  3C   2s         0.000144 -0.080626  0.000176 -0.000018  0.000224  0.030831
  3C   3s        -0.000212  0.062439 -0.000237  0.000446 -0.000578 -0.315343
  3C   1pz       -0.223837 -0.000443 -0.290485 -0.219225  0.204600  0.006879
  3C   1px       -0.000058  0.153934 -0.000226 -0.000073 -0.000067 -0.061503
  3C   1py       -0.000973  0.076751  0.000114  0.000065 -0.000044  0.094584
  3C   2pz       -0.115567 -0.000239 -0.206515 -0.146233  0.272102  0.011790
  3C   2px       -0.000100  0.066753 -0.000146  0.000154 -0.000133 -0.216062
  3C   2py       -0.000362  0.019608  0.000095  0.000006  0.000132  0.243621
  3C   1dz2      -0.000004 -0.000808 -0.000006 -0.000007 -0.000015 -0.000756
  3C   1dxz       0.011289  0.000019  0.001985  0.014016  0.018199  0.000095
  3C   1dyz       0.006424  0.000012  0.010641 -0.013660 -0.018827  0.000280
  3C   1dx2y2    -0.000044  0.008547 -0.000005 -0.000016 -0.000010 -0.013554
  3C   1dxy      -0.000021  0.004962 -0.000001 -0.000018 -0.000019 -0.010150
  4C   1s         0.000015 -0.024827  0.000014  0.000087 -0.000015  0.097315
  4C   2s        -0.000037  0.060920 -0.000023 -0.000247  0.000095 -0.248335
  4C   3s         0.000130 -0.049061  0.000202 -0.000168  0.000257  1.145063
  4C   1pz       -0.238805 -0.000336 -0.016060 -0.371585 -0.364327 -0.003358
  4C   1px       -0.000260 -0.181774  0.000163  0.000176 -0.000036  0.229507
  4C   1py        0.000622 -0.119012  0.000015  0.000457  0.000143  0.137178
  4C   2pz       -0.138045 -0.000173  0.009038 -0.289849 -0.468747 -0.006638
  4C   2px       -0.000173 -0.052589  0.000030  0.000319 -0.000462  0.178860
  4C   2py        0.000341 -0.046470  0.000045  0.000156  0.000277  0.229068
  4C   1dz2       0.000027 -0.004117 -0.000011  0.000020 -0.000020 -0.003620
  4C   1dxz      -0.000594 -0.000003 -0.020965 -0.005227  0.003899  0.000516
  4C   1dyz       0.014437  0.000026 -0.003730  0.006732 -0.005898 -0.000049
  4C   1dx2y2    -0.000034 -0.007958  0.000026 -0.000013  0.000034  0.016644
  4C   1dxy      -0.000049  0.018039  0.000003 -0.000015  0.000006  0.006444
  5H   1s         0.000500 -0.029537 -0.000073 -0.000160 -0.000083  0.025629
  5H   2s         0.000239 -0.024719 -0.000029 -0.000158 -0.000206 -0.379662
  5H   1pz       -0.006185 -0.000006 -0.000133  0.012228 -0.017985  0.000209
  5H   1px       -0.000001 -0.004350  0.000002 -0.000004  0.000001 -0.004928
  5H   1py        0.000007  0.000346  0.000001  0.000009 -0.000006 -0.000505
  6H   1s        -0.000460  0.120064 -0.000074  0.000092 -0.000059  0.065544
  6H   2s        -0.000238  0.078491 -0.000076  0.000063 -0.000289  0.206732
  6H   1pz       -0.005760 -0.000014 -0.009549  0.007905  0.010280 -0.000380
  6H   1px        0.000018 -0.000657 -0.000003  0.000004 -0.000002  0.005081
  6H   1py        0.000008  0.001988 -0.000008  0.000007  0.000007  0.002014
  7H   1s        -0.000466  0.120064 -0.000073 -0.000092 -0.000060 -0.065544
  7H   2s        -0.000241  0.078491 -0.000075 -0.000063 -0.000290 -0.206732
  7H   1pz       -0.005760 -0.000013 -0.009549 -0.007905  0.010280  0.000379
  7H   1px        0.000018 -0.000657 -0.000003 -0.000004 -0.000002 -0.005081
  7H   1py       -0.000008 -0.001988  0.000007  0.000006 -0.000005  0.002014
  8H   1s         0.000507 -0.029537 -0.000074  0.000159 -0.000085 -0.025630
  8H   2s         0.000243 -0.024719 -0.000029  0.000158 -0.000209  0.379661
  8H   1pz       -0.006185 -0.000006 -0.000133 -0.012228 -0.017985 -0.000209
  8H   1px       -0.000001 -0.004350  0.000002  0.000004  0.000001  0.004928
  8H   1py       -0.000008 -0.000346 -0.000001  0.000007  0.000004 -0.000505
                     24        25        26        27        28        29   
                   0.06128   0.07286   0.10725   0.11052   0.14017   0.15231
                   0.00000   0.00000   0.00000   0.00000   0.00000   0.00000
                  --------  --------  --------  --------  --------  --------
  0S   1s         0.000000  0.001219 -0.028150 -0.000000  0.000000 -0.032167
  0S   2s         0.000000  0.000574 -0.012114 -0.000000  0.000000 -0.013750
  0S   3s        -0.000001 -0.005200  0.088791  0.000000 -0.000000  0.098920
  0S   4s         0.000001 -0.000175 -0.104174 -0.000000  0.000000 -0.128691
  0S   5s         0.000002 -0.029946 -0.295543 -0.000000  0.000000 -0.368194
  0S   6s        -0.000006 -0.200650  0.730155  0.000001 -0.000001  1.366525
  0S   1pz        0.000000 -0.000067  0.000174 -0.000002 -0.000003  0.000181
  0S   1px       -0.000001 -0.005294  0.103866  0.000000 -0.000000  0.065406
  0S   1py       -0.002766 -0.000000  0.000000  0.022755  0.038409  0.000000
  0S   2pz       -0.000000  0.000112 -0.000300  0.000004  0.000005 -0.000283
  0S   2px        0.000001  0.015700 -0.182733 -0.000000  0.000000 -0.089665
  0S   2py        0.004405  0.000000 -0.000000 -0.049007 -0.074961 -0.000000
  0S   3pz        0.000001 -0.000415  0.001101 -0.000007 -0.000024  0.001827
  0S   3px       -0.000003  0.009998  0.628232  0.000001 -0.000001  0.950791
  0S   3py       -0.018027 -0.000000  0.000000  0.071365  0.315641  0.000001
  0S   1dz2      -0.000011  0.003231 -0.078836 -0.000000  0.000000 -0.094279
  0S   1dxz       0.000000 -0.000027  0.000178 -0.000003 -0.000002  0.000250
  0S   1dyz       0.093362  0.000003 -0.000013 -0.000004 -0.000024 -0.000016
  0S   1dx2y2    -0.000005  0.062078 -0.045982 -0.000000  0.000000 -0.056438
  0S   1dxy      -0.003374 -0.000000  0.000000  0.029375  0.020631  0.000000
  1C   1s        -0.001686  0.058683 -0.088379 -0.035506 -0.027470 -0.003488
  1C   2s         0.004272 -0.130106  0.213586  0.081794  0.036623  0.025857
  1C   3s        -0.020866  0.684317 -0.831121 -0.807230 -0.109879  0.476607
  1C   1pz       -0.214695 -0.000171 -0.000047  0.000197  0.000258 -0.000085
  1C   1px       -0.003817  0.048379 -0.151765 -0.023724  0.054072 -0.161790
  1C   1py        0.002059  0.110086  0.038973 -0.235218 -0.112228  0.235976
  1C   2pz       -0.426553 -0.000360 -0.000058  0.000436  0.000874 -0.000643
  1C   2px       -0.002314  0.254308 -0.509621 -0.176642  0.062930 -0.814013
  1C   2py        0.003369  0.332432 -0.189871 -0.687100 -0.619143  0.851985
  1C   1dz2       0.000063 -0.004324  0.004072 -0.000684  0.001802  0.000061
  1C   1dxz       0.029205 -0.000013  0.000007 -0.000000 -0.000013  0.000009
  1C   1dyz       0.002519 -0.000015  0.000022  0.000010  0.000003  0.000022
  1C   1dx2y2    -0.000289 -0.019407  0.010845  0.006755  0.000841  0.018447
  1C   1dxy       0.000117  0.007428  0.013344 -0.004479 -0.011566  0.011434
  2C   1s         0.000408  0.046278  0.036453 -0.022683  0.098802 -0.037777
  2C   2s        -0.000792 -0.109419 -0.077929  0.053665 -0.217918  0.096478
  2C   3s         0.006715  0.795596  0.430317 -0.669324  0.990683 -1.136906
  2C   1pz        0.400610  0.000039 -0.000086 -0.000078 -0.000320 -0.000033
  2C   1px        0.001084 -0.125684 -0.123554  0.102731 -0.122613 -0.005792
  2C   1py        0.001685  0.082925  0.045722 -0.084418  0.003433 -0.130906
  2C   2pz        0.696895 -0.000018 -0.000010 -0.000102 -0.000829  0.000292
  2C   2px        0.004018 -0.278687 -0.381039  0.330091 -0.878867  0.047024
  2C   2py        0.005047  0.234524  0.238714 -0.128723  0.280475 -0.584014
  2C   1dz2       0.000005 -0.003479 -0.000883 -0.000779 -0.006596  0.000104
  2C   1dxz       0.006600  0.000014 -0.000007 -0.000003 -0.000016 -0.000009
  2C   1dyz      -0.015856  0.000008  0.000009  0.000000  0.000008  0.000013
  2C   1dx2y2     0.000220  0.005419  0.010625 -0.008395 -0.012533  0.009672
  2C   1dxy      -0.000171 -0.018048 -0.008083  0.002219  0.009209 -0.019157
  3C   1s        -0.000406  0.046278  0.036453  0.022683 -0.098802 -0.037777
  3C   2s         0.000788 -0.109419 -0.077929 -0.053665  0.217918  0.096479
  3C   3s        -0.006679  0.795595  0.430316  0.669325 -0.990681 -1.136908
  3C   1pz       -0.400611  0.000067 -0.000082  0.000091  0.000319 -0.000054
  3C   1px       -0.001088 -0.125684 -0.123554 -0.102731  0.122613 -0.005792
  3C   1py        0.001625 -0.082925 -0.045722 -0.084418  0.003433  0.130906
  3C   2pz       -0.696895  0.000046  0.000019  0.000124  0.000789  0.000202
  3C   2px       -0.004025 -0.278687 -0.381038 -0.330091  0.878867  0.047025
  3C   2py        0.004938 -0.234524 -0.238714 -0.128723  0.280475  0.584014
  3C   1dz2      -0.000002 -0.003479 -0.000883  0.000779  0.006596  0.000104
[...]
   0   5   36840.7    271.4   0.000000000   0.00000 (  0.00000,  0.00000) ( -0.00000, -0.00000) ( -0.00000, -0.00000)
   0   6   36840.7    271.4   0.000000000   0.00000 ( -0.00000, -0.00000) ( -0.00000, -0.00000) (  0.00000,  0.00000)
   0   7   49029.4    204.0   0.005038559   0.00169 ( -0.00017,  0.04109) ( -0.00000,  0.00000) ( -0.00000,  0.00015)
   0   8   53886.9    185.6   0.003152183   0.00116 ( -0.00000,  0.00016) (  0.00000, -0.00000) (  0.00011, -0.03407)

-------------------------------------------------------------------------------------------------------
                                     SOC CORRECTED CD SPECTRUM*  
-------------------------------------------------------------------------------------------------------
   State    Energy  Wavelength      R               MX                    MY                    MZ  
            (cm-1)     (nm)      (1e40*sgs)         (au)                  (au)                  (au) 
-------------------------------------------------------------------------------------------------------
   0   1   30520.1    327.7     -0.00000 (  0.00000, -0.00000) (  0.00000, -0.00018) ( -0.00000,  0.00000)
   0   2   30520.2    327.7     -0.00000 (  0.00000,  0.00000) ( -0.00000, -0.00000) ( -0.00000, -0.00000)
   0   3   30520.2    327.7     -0.00000 (  0.00000, -0.00000) ( -0.00000, -0.00000) ( -0.00000, -0.00000)
   0   4   36840.7    271.4     -0.00000 (  0.00000, -0.00000) (  0.00000, -0.00001) ( -0.00000,  0.00000)
   0   5   36840.7    271.4      0.00000 (  0.00000,  0.00000) ( -0.00000, -0.00000) ( -0.00000, -0.00000)
   0   6   36840.7    271.4      0.00000 (  0.00000,  0.00000) ( -0.00000,  0.00000) ( -0.00000, -0.00000)
   0   7   49029.4    204.0     -0.00053 ( -0.00000,  0.00000) ( -0.00000,  0.00067) ( -0.00000,  0.00000)
   0   8   53886.9    185.6     -0.00070 (  0.00000, -0.00000) (  0.00026, -0.08108) ( -0.00000,  0.00001)

-------------------------------------------------------------------------------------------------------
                    SOC CORRECTED CD SPECTRUM VIA TRANSITION VELOCITY DIPOLE MOMENTS                   
-------------------------------------------------------------------------------------------------------
   State    Energy  Wavelengt      R               MX                    MY                    MZ  
            (cm-1)    (nm)     (1e40*sgs)         (au)                  (au)                  (au) 
-------------------------------------------------------------------------------------------------------
   0   1   30520.1    327.7      0.00000 (  0.00000, -0.00000) (  0.00000, -0.00018) ( -0.00000,  0.00000)
   0   2   30520.2    327.7      0.00000 (  0.00000,  0.00000) ( -0.00000, -0.00000) ( -0.00000, -0.00000)
   0   3   30520.2    327.7     -0.00000 (  0.00000, -0.00000) ( -0.00000, -0.00000) ( -0.00000, -0.00000)
   0   4   36840.7    271.4      0.00000 (  0.00000, -0.00000) (  0.00000, -0.00001) ( -0.00000,  0.00000)
   0   5   36840.7    271.4     -0.00000 (  0.00000,  0.00000) ( -0.00000, -0.00000) ( -0.00000, -0.00000)
   0   6   36840.7    271.4      0.00000 (  0.00000,  0.00000) ( -0.00000,  0.00000) ( -0.00000, -0.00000)
   0   7   49029.4    204.0     -0.00014 ( -0.00000,  0.00000) ( -0.00000,  0.00067) ( -0.00000,  0.00000)
   0   8   53886.9    185.6      0.00075 (  0.00000, -0.00000) (  0.00026, -0.08108) ( -0.00000,  0.00001)

*The complex numbers are printed as (real, imaginary)

The electronic components of the SOC ground state dipole moment in a.u. are:
           X                     Y                     Z
( -3.61070,  0.00000) (  0.00000,  0.00000) ( -0.00338,  0.00000)

Total run time:        4.470 sec

           *** ORCA-CIS/TD-DFT FINISHED WITHOUT ERROR ***

Maximum memory used throughout the entire CIS-calculation: 66.5 MB

---------------------------
SOC CIS/TD-DFT TOTAL ENERGY
---------------------------

    E(SCF)        =   -554.468804071 Eh
    E(SOC CIS)    =      0.139059678 Eh (SOC Root  1)
    ----------------------------- ---------
    E(tot)        =   -554.329744393 Eh


-------------------------   --------------------
FINAL SINGLE POINT ENERGY      -554.329744393177
-------------------------   --------------------



           ************************************************************
           *        Program running with 2 parallel MPI-processes     *
           *              working on a common directory               *
           ************************************************************
------------------------------------------------------------------------------
                         ORCA SCF GRADIENT CALCULATION
------------------------------------------------------------------------------


------------------------
TD-DFT GRADIENT XC SETUP
------------------------

Building densities                     ... done
Calculating rho(r) on the grid         ... done
Building xc-kernel on the grid         ... done
Building xc 3rd derivative on the grid      ... done
                *** TD-DFT GRADIENT CALCULATION INITIALIZED ***

-------------------
TD-DFT/TDA GRADIENT
-------------------

Reference wavefunction             ... RHF
State of interest                  ... 1
Basis dimension                    ... 96
DFT-XC contribution needed         ... YES
RI-approximation                   ... ON
CIS-vectors being read from        ... _0_force.cis

 => Number of Vectors found: 4
 => Orbital Window: 9...21 -> 22...95

Reading the CIS file                     ... done
Norm of the CI vector                    ... 1.000000000
Making the CIS (pseudo)densities         ... done
Making operators G(D) and Q(T)           ... done
Transforming the Fock operators          ... done
Making the frozen-core relaxed density   ... done
Constructing the G(H) operator           ... done
Transforming the G(H) operator           ... done
Calculating the CIS Lagrangian           ... done
Solving the Z-vector equations           ... done
Finalizing the relaxed density           ... done
Storing the relaxed density              ... done
Constructing the G(Z) operator           ... done
Transforming the G(Z) operator           ... done
Making the W-matrix                      ... done
Finalizing the W-matrix                  ... done
Transforming the W-matrix                ... done
Nuclear repulsion gradient               ... done
One-Electron gradient                    ... done
Prescreening matrices                    ... done
COSX-gradient                            ... done
Coulomb gradient (RI)                    ... done
Exchange-Correlation gradient            ... done

                 ---------------------------
                 EXCITED STATE GRADIENT DONE
                 ---------------------------

------------------
CARTESIAN GRADIENT
------------------

   1   S   :    0.029908435    0.000000016    0.000141904
   2   C   :    0.021217011    0.047093553   -0.000121556
   3   C   :   -0.038420894    0.009828814    0.000013806
   4   C   :   -0.038420898   -0.009828764    0.000015487
   5   C   :    0.021217053   -0.047093572   -0.000114806
   6   H   :   -0.000286335   -0.004355580    0.000004712
   7   H   :    0.002462744   -0.002207022    0.000028435
   8   H   :    0.002462739    0.002207018    0.000027938
   9   H   :   -0.000286331    0.004355531    0.000004147

Difference to translation invariance:
           :   -0.0001464769   -0.0000000057    0.0000000669

Difference to rotation invariance:
           :   -0.0000000269   -0.0000027761   -0.0000000002

Norm of the cartesian gradient     ...    0.0971391542
RMS gradient                       ...    0.0186944389
MAX gradient                       ...    0.0470935724

------------------------------------------------------------------------------
                  RELAXED CIS/TDA DENSITY POPULATION ANALYSIS
                                   IROOT 1
------------------------------------------------------------------------------
------------------------------------------------------------------------------
                           ORCA POPULATION ANALYSIS
------------------------------------------------------------------------------
Input electron density              ... _0_force.cisp
BaseName (.gbw .S,...)              ... _0_force

                    ********************************
                    * MULLIKEN POPULATION ANALYSIS *
                    ********************************

-----------------------
MULLIKEN ATOMIC CHARGES
-----------------------
   0 S :    0.175504
   1 C :   -0.228502
   2 C :   -0.040652
   3 C :   -0.040651
   4 C :   -0.228502
   5 H :    0.099305
   6 H :    0.082097
   7 H :    0.082097
   8 H :    0.099305
Sum of atomic charges:    0.0000000

--------------------------------
MULLIKEN REDUCED ORBITAL CHARGES
--------------------------------
  0 S s       :     5.831486  s :     5.831486
      pz      :     3.513936  p :     9.865554
      px      :     3.342529
      py      :     3.009088
      dz2     :     0.012686  d :     0.127456
      dxz     :     0.017907
      dyz     :     0.030079
      dx2y2   :     0.017228
      dxy     :     0.049556
  1 C s       :     3.166241  s :     3.166241
      pz      :     1.194713  p :     3.025961
      px      :     0.895251
      py      :     0.935998
      dz2     :     0.003286  d :     0.036300
      dxz     :     0.005784
      dyz     :     0.003593
      dx2y2   :     0.009451
      dxy     :     0.014185
  2 C s       :     3.134562  s :     3.134562
      pz      :     0.989534  p :     2.866575
      px      :     0.931394
      py      :     0.945646
      dz2     :     0.002954  d :     0.039515
      dxz     :     0.005871
      dyz     :     0.006193
      dx2y2   :     0.011921
      dxy     :     0.012576
  3 C s       :     3.134562  s :     3.134562
      pz      :     0.989534  p :     2.866575
      px      :     0.931394
      py      :     0.945647
      dz2     :     0.002954  d :     0.039515
      dxz     :     0.005871
      dyz     :     0.006193
      dx2y2   :     0.011921
      dxy     :     0.012576
  4 C s       :     3.166241  s :     3.166241
      pz      :     1.194713  p :     3.025961
      px      :     0.895251
      py      :     0.935998
      dz2     :     0.003286  d :     0.036300
      dxz     :     0.005784
      dyz     :     0.003593
      dx2y2   :     0.009451
      dxy     :     0.014185
  5 H s       :     0.879225  s :     0.879225
      pz      :     0.007421  p :     0.021470
      px      :     0.003391
      py      :     0.010659
  6 H s       :     0.897199  s :     0.897199
      pz      :     0.005926  p :     0.020704
      px      :     0.008992
      py      :     0.005786
  7 H s       :     0.897199  s :     0.897199
      pz      :     0.005926  p :     0.020704
      px      :     0.008992
      py      :     0.005786
  8 H s       :     0.879225  s :     0.879225
      pz      :     0.007421  p :     0.021470
      px      :     0.003391
      py      :     0.010659


                     *******************************
                     * LOEWDIN POPULATION ANALYSIS *
                     *******************************

----------------------
LOEWDIN ATOMIC CHARGES
----------------------
   0 S :    0.491112
   1 C :   -0.270774
   2 C :   -0.060799
   3 C :   -0.060799
   4 C :   -0.270774
   5 H :    0.036976
   6 H :    0.049041
   7 H :    0.049041
   8 H :    0.036976

-------------------------------
LOEWDIN REDUCED ORBITAL CHARGES
-------------------------------
  0 S s       :     5.525656  s :     5.525656
      pz      :     3.454822  p :     9.824437
      px      :     3.369114
      py      :     3.000502
      dz2     :     0.016062  d :     0.158795
      dxz     :     0.022343
      dyz     :     0.036289
      dx2y2   :     0.018570
      dxy     :     0.065531
  1 C s       :     2.931351  s :     2.931351
      pz      :     1.189313  p :     3.254724
      px      :     1.032647
      py      :     1.032764
      dz2     :     0.006419  d :     0.084699
      dxz     :     0.012509
      dyz     :     0.006600
      dx2y2   :     0.023004
      dxy     :     0.036167
  2 C s       :     2.877772  s :     2.877772
      pz      :     0.963477  p :     3.084490
      px      :     1.072545
      py      :     1.048468
      dz2     :     0.006585  d :     0.098537
      dxz     :     0.012909
      dyz     :     0.014018
      dx2y2   :     0.034584
      dxy     :     0.030442
  3 C s       :     2.877772  s :     2.877772
      pz      :     0.963477  p :     3.084490
      px      :     1.072545
      py      :     1.048468
      dz2     :     0.006585  d :     0.098537
      dxz     :     0.012909
      dyz     :     0.014018
      dx2y2   :     0.034584
      dxy     :     0.030442
  4 C s       :     2.931351  s :     2.931351
      pz      :     1.189313  p :     3.254724
      px      :     1.032647
      py      :     1.032764
      dz2     :     0.006419  d :     0.084699
      dxz     :     0.012509
      dyz     :     0.006600
      dx2y2   :     0.023004
      dxy     :     0.036167
  5 H s       :     0.883709  s :     0.883709
      pz      :     0.025388  p :     0.079315
      px      :     0.011760
      py      :     0.042167
  6 H s       :     0.878869  s :     0.878869
      pz      :     0.019057  p :     0.072090
      px      :     0.032285
      py      :     0.020749
  7 H s       :     0.878869  s :     0.878869
      pz      :     0.019057  p :     0.072090
      px      :     0.032285
      py      :     0.020749
  8 H s       :     0.883709  s :     0.883709
      pz      :     0.025388  p :     0.079315
      px      :     0.011760
      py      :     0.042167


                      *****************************
                      * MAYER POPULATION ANALYSIS *
                      *****************************

  NA   - Mulliken gross atomic population
  ZA   - Total nuclear charge
  QA   - Mulliken gross atomic charge
  VA   - Mayer's total valence
  BVA  - Mayer's bonded valence
  FA   - Mayer's free valence

  ATOM       NA         ZA         QA         VA         BVA        FA
  0 S     15.8245    16.0000     0.1755     2.7176     2.0885     0.6291
  1 C      6.2285     6.0000    -0.2285     3.7556     3.2264     0.5292
  2 C      6.0407     6.0000    -0.0407     3.9187     3.4221     0.4966
  3 C      6.0407     6.0000    -0.0407     3.9187     3.4221     0.4966
  4 C      6.2285     6.0000    -0.2285     3.7556     3.2264     0.5292
  5 H      0.9007     1.0000     0.0993     0.9906     0.9842     0.0064
  6 H      0.9179     1.0000     0.0821     0.9854     0.9780     0.0073
  7 H      0.9179     1.0000     0.0821     0.9854     0.9780     0.0073
  8 H      0.9007     1.0000     0.0993     0.9906     0.9842     0.0064

  Mayer bond orders larger than 0.100000
B(  0-S ,  1-C ) :   0.9987 B(  0-S ,  4-C ) :   0.9987 B(  1-C ,  2-C ) :   1.2650 
B(  1-C ,  5-H ) :   0.9612 B(  2-C ,  3-C ) :   1.1388 B(  2-C ,  6-H ) :   0.9728 
B(  3-C ,  4-C ) :   1.2650 B(  3-C ,  7-H ) :   0.9728 B(  4-C ,  8-H ) :   0.9612 



-------
TIMINGS
-------

Total TD-DFT gradient time         ...       14.881 sec

Fock matrix formation       ....       3.212 sec  ( 21.6%)
  Coulomb formation         ....       2.478 sec  ( 77.2% of F)
  RI-J                      ....       0.660 sec  ( 20.6% of F)
  Chain of spheres X        ....       1.818 sec  ( 56.6% of F)
  XC integration            ....       0.733 sec  ( 22.8% of F)
Z-vector equation           ....       4.068 sec  ( 27.3%)
One electron gradient       ....       0.033 sec  (  0.2%)
Prescreening matrices       ....       0.082 sec  (  0.6%)
RI-J Coulomb gradient       ....       0.793 sec  (  5.3%)
COSX gradient               ....       1.702 sec  ( 11.4%)
XC gradient                 ....       4.216 sec  ( 28.3%)

Maximum memory used throughout the entire SCFGRAD-calculation: 114.8 MB

                            ***************************************
                            *     ORCA property calculations      *
                            ***************************************

                                    ---------------------
                                    Active property flags
                                    ---------------------
   (+) Dipole Moment


------------------------------------------------------------------------------
                       ORCA ELECTRIC PROPERTIES CALCULATION
------------------------------------------------------------------------------

Dipole Moment Calculation                       ... on
Quadrupole Moment Calculation                   ... off
Polarizability Calculation                      ... off
GBWName                                         ... _0_force.gbw
Electron density                                ... _0_force.scfp
The origin for moment calculation is the CENTER OF MASS  = ( 0.011082,  0.000000 -0.000946)

-------------
DIPOLE MOMENT
-------------
                                X             Y             Z
Electronic contribution:     -3.61070       0.00000      -0.00338
Nuclear contribution   :      3.75115      -0.00000       0.00336
                        -----------------------------------------
Total Dipole Moment    :      0.14045       0.00000      -0.00002
                        -----------------------------------------
Magnitude (a.u.)       :      0.14045
Magnitude (Debye)      :      0.35699



--------------------
Rotational spectrum 
--------------------
 
Rotational constants in cm-1:     0.265583     0.178139     0.106622 
Rotational constants in MHz :  7961.976375  5340.460075  3196.454353 

 Dipole components along the rotational axes: 
x,y,z [a.u.] :    -0.140447     0.000000    -0.000094 
x,y,z [Debye]:    -0.356987     0.000000    -0.000238 

 

                        *** CIS RELAXED DENSITY ***

------------------------------------------------------------------------------
                       ORCA ELECTRIC PROPERTIES CALCULATION
------------------------------------------------------------------------------

Dipole Moment Calculation                       ... on
Quadrupole Moment Calculation                   ... off
Polarizability Calculation                      ... off
GBWName                                         ... _0_force.gbw
Electron density                                ... _0_force.cisp
The origin for moment calculation is the CENTER OF MASS  = ( 0.011082,  0.000000 -0.000946)

-------------
DIPOLE MOMENT
-------------
                                X             Y             Z
Electronic contribution:     -3.62234       0.00000      -0.00324
Nuclear contribution   :      3.75115      -0.00000       0.00336
                        -----------------------------------------
Total Dipole Moment    :      0.12881       0.00000       0.00012
                        -----------------------------------------
Magnitude (a.u.)       :      0.12881
Magnitude (Debye)      :      0.32742



--------------------
Rotational spectrum 
--------------------
 
Rotational constants in cm-1:     0.265583     0.178139     0.106622 
Rotational constants in MHz :  7961.976375  5340.460075  3196.454353 

 Dipole components along the rotational axes: 
x,y,z [a.u.] :    -0.128813     0.000001     0.000060 
x,y,z [Debye]:    -0.327417     0.000002     0.000151 

 

Timings for individual modules:

Sum of individual times         ...       32.869 sec (=   0.548 min)
GTO integral calculation        ...        2.017 sec (=   0.034 min)   6.1 %
Relativistic integrals          ...        1.802 sec (=   0.030 min)   5.5 %
SCF iterations                  ...        6.008 sec (=   0.100 min)  18.3 %
CIS module                      ...        6.363 sec (=   0.106 min)  19.4 %
SCF Gradient evaluation         ...       16.679 sec (=   0.278 min)  50.7 %
                             ****ORCA TERMINATED NORMALLY****
TOTAL RUN TIME: 0 days 0 hours 0 minutes 34 seconds 886 msec
