
                                 *****************
                                 * O   R   C   A *
                                 *****************

                                            #,                                       
                                            ###                                      
                                            ####                                     
                                            #####                                    
                                            ######                                   
                                           ########,                                 
                                     ,,################,,,,,                         
                               ,,#################################,,                 
                          ,,##########################################,,             
                       ,#########################################, ''#####,          
                    ,#############################################,,   '####,        
                  ,##################################################,,,,####,       
                ,###########''''           ''''###############################       
              ,#####''   ,,,,##########,,,,          '''####'''          '####       
            ,##' ,,,,###########################,,,                        '##       
           ' ,,###''''                  '''############,,,                           
         ,,##''                                '''############,,,,        ,,,,,,###''
      ,#''                                            '''#######################'''  
     '                                                          ''''####''''         
             ,#######,   #######,   ,#######,      ##                                
            ,#'     '#,  ##    ##  ,#'     '#,    #''#        ######   ,####,        
            ##       ##  ##   ,#'  ##            #'  '#       #        #'  '#        
            ##       ##  #######   ##           ,######,      #####,   #    #        
            '#,     ,#'  ##    ##  '#,     ,#' ,#      #,         ##   #,  ,#        
             '#######'   ##     ##  '#######'  #'      '#     #####' # '####'        



                  #######################################################
                  #                        -***-                        #
                  #          Department of theory and spectroscopy      #
                  #    Directorship and core code : Frank Neese         #
                  #        Max Planck Institute fuer Kohlenforschung    #
                  #                Kaiser Wilhelm Platz 1               #
                  #                 D-45470 Muelheim/Ruhr               #
                  #                      Germany                        #
                  #                                                     #
                  #                  All rights reserved                #
                  #                        -***-                        #
                  #######################################################


                         Program Version 5.0.3 -  RELEASE  -


 With contributions from (in alphabetic order):
   Daniel Aravena         : Magnetic Suceptibility
   Michael Atanasov       : Ab Initio Ligand Field Theory (pilot matlab implementation)
   Alexander A. Auer      : GIAO ZORA, VPT2 properties, NMR spectrum
   Ute Becker             : Parallelization
   Giovanni Bistoni       : ED, misc. LED, open-shell LED, HFLD
   Martin Brehm           : Molecular dynamics
   Dmytro Bykov           : SCF Hessian
   Vijay G. Chilkuri      : MRCI spin determinant printing, contributions to CSF-ICE
   Dipayan Datta          : RHF DLPNO-CCSD density
   Achintya Kumar Dutta   : EOM-CC, STEOM-CC
   Dmitry Ganyushin       : Spin-Orbit,Spin-Spin,Magnetic field MRCI
   Miquel Garcia          : C-PCM and meta-GGA Hessian, CC/C-PCM, Gaussian charge scheme
   Yang Guo               : DLPNO-NEVPT2, F12-NEVPT2, CIM, IAO-localization
   Andreas Hansen         : Spin unrestricted coupled pair/coupled cluster methods
   Benjamin Helmich-Paris : MC-RPA, TRAH-SCF, COSX integrals
   Lee Huntington         : MR-EOM, pCC
   Robert Izsak           : Overlap fitted RIJCOSX, COSX-SCS-MP3, EOM
   Marcus Kettner         : VPT2
   Christian Kollmar      : KDIIS, OOCD, Brueckner-CCSD(T), CCSD density, CASPT2, CASPT2-K
   Simone Kossmann        : Meta GGA functionals, TD-DFT gradient, OOMP2, MP2 Hessian
   Martin Krupicka        : Initial AUTO-CI
   Lucas Lang             : DCDCAS
   Marvin Lechner         : AUTO-CI (C++ implementation), FIC-MRCC
   Dagmar Lenk            : GEPOL surface, SMD
   Dimitrios Liakos       : Extrapolation schemes; Compound Job, initial MDCI parallelization
   Dimitrios Manganas     : Further ROCIS development; embedding schemes
   Dimitrios Pantazis     : SARC Basis sets
   Anastasios Papadopoulos: AUTO-CI, single reference methods and gradients
   Taras Petrenko         : DFT Hessian,TD-DFT gradient, ASA, ECA, R-Raman, ABS, FL, XAS/XES, NRVS
   Peter Pinski           : DLPNO-MP2, DLPNO-MP2 Gradient
   Christoph Reimann      : Effective Core Potentials
   Marius Retegan         : Local ZFS, SOC
   Christoph Riplinger    : Optimizer, TS searches, QM/MM, DLPNO-CCSD(T), (RO)-DLPNO pert. Triples
   Tobias Risthaus        : Range-separated hybrids, TD-DFT gradient, RPA, STAB
   Michael Roemelt        : Original ROCIS implementation
   Masaaki Saitow         : Open-shell DLPNO-CCSD energy and density
   Barbara Sandhoefer     : DKH picture change effects
   Avijit Sen             : IP-ROCIS
   Kantharuban Sivalingam : CASSCF convergence, NEVPT2, FIC-MRCI
   Bernardo de Souza      : ESD, SOC TD-DFT
   Georgi Stoychev        : AutoAux, RI-MP2 NMR, DLPNO-MP2 response
   Willem Van den Heuvel  : Paramagnetic NMR
   Boris Wezisla          : Elementary symmetry handling
   Frank Wennmohs         : Technical directorship


 We gratefully acknowledge several colleagues who have allowed us to
 interface, adapt or use parts of their codes:
   Stefan Grimme, W. Hujo, H. Kruse, P. Pracht,  : VdW corrections, initial TS optimization,
                  C. Bannwarth, S. Ehlert          DFT functionals, gCP, sTDA/sTD-DF
   Ed Valeev, F. Pavosevic, A. Kumar             : LibInt (2-el integral package), F12 methods
   Garnet Chan, S. Sharma, J. Yang, R. Olivares  : DMRG
   Ulf Ekstrom                                   : XCFun DFT Library
   Mihaly Kallay                                 : mrcc  (arbitrary order and MRCC methods)
   Jiri Pittner, Ondrej Demel                    : Mk-CCSD
   Frank Weinhold                                : gennbo (NPA and NBO analysis)
   Christopher J. Cramer and Donald G. Truhlar   : smd solvation model
   Lars Goerigk                                  : TD-DFT with DH, B97 family of functionals
   V. Asgeirsson, H. Jonsson                     : NEB implementation
   FAccTs GmbH                                   : IRC, NEB, NEB-TS, DLPNO-Multilevel, CI-OPT
                                                   MM, QMMM, 2- and 3-layer-ONIOM, Crystal-QMMM,
                                                   LR-CPCM, SF, NACMEs, symmetry and pop. for TD-DFT,
                                                   nearIR, NL-DFT gradient (VV10), updates on ESD,
                                                   ML-optimized integration grids
   S Lehtola, MJT Oliveira, MAL Marques          : LibXC Library
   Liviu Ungur et al                             : ANISO software


 Your calculation uses the libint2 library for the computation of 2-el integrals
 For citations please refer to: http://libint.valeyev.net

 Your ORCA version has been built with support for libXC version: 5.1.0
 For citations please refer to: https://tddft.org/programs/libxc/

 This ORCA versions uses:
   CBLAS   interface :  Fast vector & matrix operations
   LAPACKE interface :  Fast linear algebra routines
   SCALAPACK package :  Parallel linear algebra routines
   Shared memory     :  Shared parallel matrices
   BLAS/LAPACK       :  OpenBLAS 0.3.15  USE64BITINT DYNAMIC_ARCH NO_AFFINITY Haswell SINGLE_THREADED
        Core in use  :  Haswell
   Copyright (c) 2011-2014, The OpenBLAS Project


================================================================================

----- Orbital basis set information -----
Your calculation utilizes the basis: ZORA-def2-SVP 
   Exponents from def2-SVP [F. Weigend and R. Ahlrichs, Phys. Chem. Chem. Phys. 7, 3297 (2005)],
   recontracted for ZORA by D. A. Pantazis.

----- AuxJ basis set information -----
Your calculation utilizes the auxiliary basis: SARC/J 
   decontracted def2/J up to Kr:
   F. Weigend, Phys. Chem. Chem. Phys. 8, 1057 (2006)
   and SARC auxiliary basis sets beyond Kr:
   D. A. Pantazis and F. Neese, J. Chem. Theory Comput. 5, 2229 (2009).
   D. A. Pantazis, X. Y. Chen, C. R. Landis and F. Neese, J. Chem. Theory Comput. 4, 908 (2008).
   D. A. Pantazis and F. Neese, Theor. Chem. Acc. 131, 1292 (2012).
   D. A. Pantazis and F. Neese, J. Chem. Theory Comput. 7, 677 (2011).

================================================================================
                                        WARNINGS
                       Please study these warnings very carefully!
================================================================================

WARNING: Old DensityContainer found on disk!
         Will remove this file - 
         If you want to keep old densities, please start your calculation with a different basename. 


WARNING: In scalar relativistic gradient/hessian runs we need the one-center approximation
  ===> : %rel OneCenter is turned on
INFO   : Checking CIS options ...

WARNING: (CIS/TDDFT): Spin-orbit needs TRIPLETS set to TRUE
  ===> : ajusting flags

WARNING: CIS/ROCIS methods need fully converged wavefunctions
  ===> : Setting SCFConvForced true
         You can overwrite this default with %scf ConvForced false 


INFO   : the flag for use of the SHARK integral package has been found!

================================================================================
                                       INPUT FILE
================================================================================
NAME = _1_force.inp
|  1> #
|  2> ! B3LYP PrintMOs ZORA EnGrad ZORA-def2-SVP SARC/J
|  3> %pal
|  4>     nprocs 2
|  5> end
|  6> %MaxCore 8000
|  7> %tddft
|  8>     DoSOC true
|  9>     IRoot 1
| 10>     NRoots 2
| 11> end
| 12> %scf
| 13>     guess MORead
| 14>     MOInp "_0_force.gbw"
| 15> end
| 16> 
| 17> *xyz 0 1
| 18> S    -1.14773   0.00005  -0.00063
| 19> C     0.05133  -1.23731  -0.00250
| 20> C     1.33791  -0.71513   0.00065
| 21> C     1.32371   0.71079  -0.00045
| 22> C     0.05704   1.24268   0.00279
| 23> H    -0.22450  -2.30298  -0.01171
| 24> H     2.20577  -1.29866   0.02239
| 25> H     2.20871   1.33152  -0.01728
| 26> H    -0.20262   2.25614  -0.02075
| 27> *
| 28> 
| 29> 
| 30> 
| 31>                          ****END OF INPUT****
================================================================================

                     *******************************
                     * Energy+Gradient Calculation *
                     *******************************

---------------------------------
CARTESIAN COORDINATES (ANGSTROEM)
---------------------------------
  S     -1.147730    0.000050   -0.000630
  C      0.051330   -1.237310   -0.002500
  C      1.337910   -0.715130    0.000650
  C      1.323710    0.710790   -0.000450
  C      0.057040    1.242680    0.002790
  H     -0.224500   -2.302980   -0.011710
  H      2.205770   -1.298660    0.022390
  H      2.208710    1.331520   -0.017280
  H     -0.202620    2.256140   -0.020750

----------------------------
CARTESIAN COORDINATES (A.U.)
----------------------------
  NO LB      ZA    FRAG     MASS         X           Y           Z
   0 S    16.0000    0    32.060   -2.168895    0.000094   -0.001191
   1 C     6.0000    0    12.011    0.097000   -2.338177   -0.004724
   2 C     6.0000    0    12.011    2.528283   -1.351400    0.001228
   3 C     6.0000    0    12.011    2.501449    1.343198   -0.000850
   4 C     6.0000    0    12.011    0.107790    2.348325    0.005272
   5 H     1.0000    0     1.008   -0.424244   -4.352001   -0.022129
   6 H     1.0000    0     1.008    4.168301   -2.454112    0.042311
   7 H     1.0000    0     1.008    4.173857    2.516208   -0.032654
   8 H     1.0000    0     1.008   -0.382896    4.263487   -0.039212

--------------------------------
INTERNAL COORDINATES (ANGSTROEM)
--------------------------------
 S      0   0   0     0.000000000000     0.00000000     0.00000000
 C      1   0   0     1.723022968535     0.00000000     0.00000000
 C      2   1   0     1.388513583405   112.00857520     0.00000000
 C      3   2   1     1.425991127742   111.51986339   359.78162698
 C      4   3   2     1.373815984257   113.34849270     0.32340716
 H      2   1   3     1.100826762892   121.38842885   180.35827430
 H      3   2   1     1.046021447247   123.98819771   178.53172308
 H      4   3   2     1.081117006526   124.47092479   181.20877051
 H      5   4   3     1.046460041664   127.13390811   181.61279524

---------------------------
INTERNAL COORDINATES (A.U.)
---------------------------
 S      0   0   0     0.000000000000     0.00000000     0.00000000
 C      1   0   0     3.256041532988     0.00000000     0.00000000
 C      2   1   0     2.623910405865   112.00857520     0.00000000
 C      3   2   1     2.694732700835   111.51986339   359.78162698
 C      4   3   2     2.596135968649   113.34849270     0.32340716
 H      2   1   3     2.080261102758   121.38842885   180.35827430
 H      3   2   1     1.976694065504   123.98819771   178.53172308
 H      4   3   2     2.043015061059   124.47092479   181.20877051
 H      5   4   3     1.977522888837   127.13390811   181.61279524

---------------------
BASIS SET INFORMATION
---------------------
There are 3 groups of distinct atoms

 Group   1 Type S   : 10s7p1d contracted to 6s3p1d pattern {511111/511/1}
 Group   2 Type C   : 7s4p1d contracted to 3s2p1d pattern {511/31/1}
 Group   3 Type H   : 4s1p contracted to 2s1p pattern {31/1}

Atom   0S    basis set group =>   1
Atom   1C    basis set group =>   2
Atom   2C    basis set group =>   2
Atom   3C    basis set group =>   2
Atom   4C    basis set group =>   2
Atom   5H    basis set group =>   3
Atom   6H    basis set group =>   3
Atom   7H    basis set group =>   3
Atom   8H    basis set group =>   3
---------------------------------
AUXILIARY/J BASIS SET INFORMATION
---------------------------------
There are 3 groups of distinct atoms

 Group   1 Type S   : 14s5p5d2f1g contracted to 14s5p5d2f1g pattern {11111111111111/11111/11111/11/1}
 Group   2 Type C   : 12s5p4d2f1g contracted to 12s5p4d2f1g pattern {111111111111/11111/1111/11/1}
 Group   3 Type H   : 5s2p1d contracted to 5s2p1d pattern {11111/11/1}

Atom   0S    basis set group =>   1
Atom   1C    basis set group =>   2
Atom   2C    basis set group =>   2
Atom   3C    basis set group =>   2
Atom   4C    basis set group =>   2
Atom   5H    basis set group =>   3
Atom   6H    basis set group =>   3
Atom   7H    basis set group =>   3
Atom   8H    basis set group =>   3


           ************************************************************
           *        Program running with 2 parallel MPI-processes     *
           *              working on a common directory               *
           ************************************************************
------------------------------------------------------------------------------
                           ORCA GTO INTEGRAL CALCULATION
                           -- RI-GTO INTEGRALS CHOSEN --
------------------------------------------------------------------------------
------------------------------------------------------------------------------
                   ___                                                        
                  /   \      - P O W E R E D   B Y -                         
                 /     \                                                     
                 |  |  |   _    _      __       _____    __    __             
                 |  |  |  | |  | |    /  \     |  _  \  |  |  /  |          
                  \  \/   | |  | |   /    \    | | | |  |  | /  /          
                 / \  \   | |__| |  /  /\  \   | |_| |  |  |/  /          
                |  |  |   |  __  | /  /__\  \  |    /   |      \           
                |  |  |   | |  | | |   __   |  |    \   |  |\   \          
                \     /   | |  | | |  |  |  |  | |\  \  |  | \   \       
                 \___/    |_|  |_| |__|  |__|  |_| \__\ |__|  \__/        
                                                                              
                      - O R C A' S   B I G   F R I E N D -                    
                                      &                                       
                       - I N T E G R A L  F E E D E R -                       
                                                                              
 v1 FN, 2020, v2 2021                                                         
------------------------------------------------------------------------------


Reading SHARK input file _1_force.SHARKINP.tmp ... ok
----------------------
SHARK INTEGRAL PACKAGE
----------------------

Number of atoms                             ...      9
Number of basis functions                   ...     96
Number of shells                            ...     46
Maximum angular momentum                    ...      2
Integral batch strategy                     ... SHARK/LIBINT Hybrid
RI-J (if used) integral strategy            ... SPLIT-RIJ (Revised 2003 algorithm where possible)
Printlevel                                  ...      1
Contraction scheme used                     ... SEGMENTED contraction
Coulomb Range Separation                    ... NOT USED
Exchange Range Separation                   ... NOT USED
Finite Nucleus Model                        ... NOT USED
Auxiliary Coulomb fitting basis             ... AVAILABLE
   # of basis functions in Aux-J            ...    421
   # of shells in Aux-J                     ...    155
   Maximum angular momentum in Aux-J        ...      4
Auxiliary J/K fitting basis                 ... NOT available
Auxiliary Correlation fitting basis         ... NOT available
Auxiliary 'external' fitting basis          ... NOT available
Integral threshold                          ...     2.500000e-11
Primitive cut-off                           ...     2.500000e-12
Primitive pair pre-selection threshold      ...     2.500000e-12

Calculating pre-screening integrals         ... done (  0.0 sec) Dimension = 46
Organizing shell pair data                  ... done (  0.0 sec)
Shell pair information
Total number of shell pairs                 ...      1081
Shell pairs after pre-screening             ...      1056
Total number of primitive shell pairs       ...      3825
Primitive shell pairs kept                  ...      2946
          la=0 lb=0:    336 shell pairs
          la=1 lb=0:    380 shell pairs
          la=1 lb=1:    120 shell pairs
          la=2 lb=0:    130 shell pairs
          la=2 lb=1:     75 shell pairs
          la=2 lb=2:     15 shell pairs

Calculating one electron integrals          ... done (  0.0 sec)
Calculating RI/J V-Matrix + Cholesky decomp.... done (  0.0 sec)
Calculating Nuclear repulsion               ... done (  0.0 sec) ENN=    201.913216985885 Eh

SHARK setup successfully completed in   0.2 seconds

Maximum memory used throughout the entire GTOINT-calculation: 9.9 MB


           ************************************************************
           *        Program running with 2 parallel MPI-processes     *
           *              working on a common directory               *
           ************************************************************
------------------------------------------------------------------------------
                          ORCA RELATIVISTIC HAMILTONIAN
------------------------------------------------------------------------------

Relativistic Method            ... ZORA(MP)
Treatment of potential         ... Van Wuellen
Nucleus model                  ... Point Nucleus
Speed of light used            ... 137.03598950000000


            *************************************************
            *         ZERO ORDER REGULAR APPROXIMATION      *
            *                     ZORA(MP)                  *
            *            Programmed by FN according to      *
            *                   C. van Wuellen              *
            *       J. Chem. Phys. (1998) vol 109, 392-399  *
            *************************************************

Terms included in model potential: +V(e,N)+V(C)+V(Xa)+V(VWN-V)
Basis function cutoff value   ... 1.000000e-11
Loading the fitted atomic densities (ZORA)   ... done
Calculating the cutoffs                      ... done
Number of fit functions                      ... 80
One center approximation for ZORA is active
Finding unique atoms                  ... 3 atom types
AtomType   0 (S ) Member=  0 NMembers=   1, NRad=2000 NumBF= 20
             ... doing numerical integration
             ... adding submatrices to 1 actual atoms
AtomType   1 (C ) Member=  1 NMembers=   4, NRad=2000 NumBF= 14
             ... doing numerical integration
             ... adding submatrices to 4 actual atoms
AtomType   2 (H ) Member=  5 NMembers=   4, NRad=2000 NumBF=  5
             ... doing numerical integration
             ... adding submatrices to 4 actual atoms
             ... done with one-center part

Maximum memory used throughout the entire REL-calculation: 0.8 MB


           ************************************************************
           *        Program running with 2 parallel MPI-processes     *
           *              working on a common directory               *
           ************************************************************
-------------------------------------------------------------------------------
                                 ORCA SCF
-------------------------------------------------------------------------------

------------
SCF SETTINGS
------------
Hamiltonian:
 Density Functional     Method          .... DFT(GTOs)
 Exchange Functional    Exchange        .... B88
   X-Alpha parameter    XAlpha          ....  0.666667
   Becke's b parameter  XBeta           ....  0.004200
 Correlation Functional Correlation     .... LYP
 LDA part of GGA corr.  LDAOpt          .... VWN-5
 Gradients option       PostSCFGGA      .... off
 Hybrid DFT is turned on
   Fraction HF Exchange ScalHFX         ....  0.200000
   Scaling of DF-GGA-X  ScalDFX         ....  0.720000
   Scaling of DF-GGA-C  ScalDFC         ....  0.810000
   Scaling of DF-LDA-C  ScalLDAC        ....  1.000000
   Perturbative correction              ....  0.000000
   Density functional embedding theory  .... OFF
   NL short-range parameter             ....  4.800000
 RI-approximation to the Coulomb term is turned on
   Number of AuxJ basis functions       .... 421
   RIJ-COSX (HFX calculated with COS-X)).... on

Relativistic Settings:
 Scalar relativistic method             .... ZORA
 Speed of light used       Velit        ....       137.035989
Orbital energies will be scaled


General Settings:
 Integral files         IntName         .... _1_force
 Hartree-Fock type      HFTyp           .... RHF
 Total Charge           Charge          ....    0
 Multiplicity           Mult            ....    1
 Number of Electrons    NEL             ....   44
 Basis Dimension        Dim             ....   96
 Nuclear Repulsion      ENuc            ....    201.9132169859 Eh

Convergence Acceleration:
 DIIS                   CNVDIIS         .... on
   Start iteration      DIISMaxIt       ....    12
   Startup error        DIISStart       ....  0.200000
   # of expansion vecs  DIISMaxEq       ....     5
   Bias factor          DIISBfac        ....   1.050
   Max. coefficient     DIISMaxC        ....  10.000
 Trust-Rad. Augm. Hess. CNVTRAH         .... auto
   Auto Start mean grad. ratio tolernc. ....  1.125000
   Auto Start start iteration           ....     1
   Auto Start num. interpolation iter.  ....    10
   Max. Number of Micro iterations      ....    16
   Max. Number of Macro iterations      .... Maxiter - #DIIS iter
   Number of Davidson start vectors     ....     2
   Converg. threshold I  (grad. norm)   ....   1.000e-05
   Converg. threshold II (energy diff.) ....   1.000e-08
   Grad. Scal. Fac. for Micro threshold ....   0.100
   Minimum threshold for Micro iter.    ....   0.010
   NR start threshold (gradient norm)   ....   0.001
   Initial trust radius                 ....   0.400
   Minimum AH scaling param. (alpha)    ....   1.000
   Maximum AH scaling param. (alpha)    .... 1000.000
   Orbital update algorithm             .... Taylor
   White noise on init. David. guess    .... on
   Maximum white noise                  ....   0.010
   Quad. conv. algorithm                .... NR
 SOSCF                  CNVSOSCF        .... on
   Start iteration      SOSCFMaxIt      ....   150
   Startup grad/error   SOSCFStart      ....  0.003300
 Level Shifting         CNVShift        .... on
   Level shift para.    LevelShift      ....    0.2500
   Turn off err/grad.   ShiftErr        ....    0.0010
 Zerner damping         CNVZerner       .... off
 Static damping         CNVDamp         .... on
   Fraction old density DampFac         ....    0.7000
   Max. Damping (<1)    DampMax         ....    0.9800
   Min. Damping (>=0)   DampMin         ....    0.0000
   Turn off err/grad.   DampErr         ....    0.1000
 Fernandez-Rico         CNVRico         .... off

SCF Procedure:
 Maximum # iterations   MaxIter         ....   125
 SCF integral mode      SCFMode         .... Direct
   Integral package                     .... SHARK and LIBINT hybrid scheme
 Reset frequency        DirectResetFreq ....    20
 Integral Threshold     Thresh          ....  2.500e-11 Eh
 Primitive CutOff       TCut            ....  2.500e-12 Eh

Convergence Tolerance:
 Convergence Check Mode ConvCheckMode   .... Total+1el-Energy
 Convergence forced     ConvForced      .... 1
 Energy Change          TolE            ....  1.000e-08 Eh
 1-El. energy change                    ....  1.000e-05 Eh
 Orbital Gradient       TolG            ....  1.000e-05
 Orbital Rotation angle TolX            ....  1.000e-05
 DIIS Error             TolErr          ....  5.000e-07


Diagonalization of the overlap matrix:
Smallest eigenvalue                        ... 1.121e-03
Time for diagonalization                   ...    0.002 sec
Threshold for overlap eigenvalues          ... 1.000e-08
Number of eigenvalues below threshold      ... 0
Time for construction of square roots      ...    0.003 sec
Total time needed                          ...    0.005 sec

---------------------
INITIAL GUESS: MOREAD
---------------------
Guess MOs are being read from file: _0_force.gbw
Input geometry compatible with but different from current geometry
Input basis set matches current basis set (good)
MOs were renormalized
MOs were reorthogonalized (Cholesky)
                      ------------------
                      INITIAL GUESS DONE (   0.0 sec)
                      ------------------
-------------------
DFT GRID GENERATION
-------------------

General Integration Accuracy     IntAcc      ... 4.388
Radial Grid Type                 RadialGrid  ... OptM3 with GC (2021)
Angular Grid (max. ang.)         AngularGrid ... 4 (Lebedev-302)
Angular grid pruning method      GridPruning ... 4 (adaptive)
Weight generation scheme         WeightScheme... Becke
Basis function cutoff            BFCut       ... 1.0000e-11
Integration weight cutoff        WCut        ... 1.0000e-14
Angular grids for H and He will be reduced by one unit
Partially contracted basis set               ... off
Rotationally invariant grid construction     ... off

Total number of grid points                  ...    44479
Total number of batches                      ...      699
Average number of points per batch           ...       63
Average number of grid points per atom       ...     4942
Time for grid setup =    0.308 sec

--------------------
COSX GRID GENERATION
--------------------

GRIDX 1
-------
General Integration Accuracy     IntAcc      ... 3.816
Radial Grid Type                 RadialGrid  ... OptM3 with GC (2021)
Angular Grid (max. ang.)         AngularGrid ... 1 (Lebedev-50)
Angular grid pruning method      GridPruning ... 4 (adaptive)
Weight generation scheme         WeightScheme... Becke
Basis function cutoff            BFCut       ... 1.0000e-11
Integration weight cutoff        WCut        ... 1.0000e-14
Angular grids for H and He will be reduced by one unit
Partially contracted basis set               ... on
Rotationally invariant grid construction     ... off

Total number of grid points                  ...     5603
Total number of batches                      ...       90
Average number of points per batch           ...       62
Average number of grid points per atom       ...      623
UseSFitting                                  ... on

GRIDX 2
-------
General Integration Accuracy     IntAcc      ... 4.020
Radial Grid Type                 RadialGrid  ... OptM3 with GC (2021)
Angular Grid (max. ang.)         AngularGrid ... 2 (Lebedev-110)
Angular grid pruning method      GridPruning ... 4 (adaptive)
Weight generation scheme         WeightScheme... Becke
Basis function cutoff            BFCut       ... 1.0000e-11
Integration weight cutoff        WCut        ... 1.0000e-14
Angular grids for H and He will be reduced by one unit
Partially contracted basis set               ... on
Rotationally invariant grid construction     ... off

Total number of grid points                  ...    12407
Total number of batches                      ...      197
Average number of points per batch           ...       62
Average number of grid points per atom       ...     1379
UseSFitting                                  ... on

GRIDX 3
-------
General Integration Accuracy     IntAcc      ... 4.338
Radial Grid Type                 RadialGrid  ... OptM3 with GC (2021)
Angular Grid (max. ang.)         AngularGrid ... 3 (Lebedev-194)
Angular grid pruning method      GridPruning ... 4 (adaptive)
Weight generation scheme         WeightScheme... Becke
Basis function cutoff            BFCut       ... 1.0000e-11
Integration weight cutoff        WCut        ... 1.0000e-14
Angular grids for H and He will be reduced by one unit
Partially contracted basis set               ... on
Rotationally invariant grid construction     ... off

Total number of grid points                  ...    27912
Total number of batches                      ...      441
Average number of points per batch           ...       63
Average number of grid points per atom       ...     3101
UseSFitting                                  ... on

Time for X-Grid setup             =    0.329 sec

--------------
SCF ITERATIONS
--------------
ITER       Energy         Delta-E        Max-DP      RMS-DP      [F,P]     Damp
               ***  Starting incremental Fock matrix formation  ***
  0   -554.4649704377   0.000000000000 0.00387411  0.00022735  0.0116631 0.7000
                      *** Initiating the SOSCF procedure ***
                      *** Re-Reading the Fockian *** 
                      *** Removing any level shift *** 
ITER      Energy       Delta-E        Grad      Rot      Max-DP    RMS-DP
  1   -554.46525121  -0.0002807738  0.000840  0.000840  0.010642  0.000605
               *** Restarting incremental Fock matrix formation ***
  2   -554.46587843  -0.0006272141  0.001438  0.006490  0.005915  0.000232
  3   -554.46583213   0.0000462951  0.003247  0.004977  0.004509  0.000150
  4   -554.46591589  -0.0000837578  0.000277  0.000859  0.000924  0.000044
  5   -554.46591562   0.0000002692  0.000358  0.000497  0.000636  0.000024
  6   -554.46591730  -0.0000016818  0.000050  0.000163  0.000197  0.000009
  7   -554.46591730  -0.0000000014  0.000059  0.000103  0.000132  0.000005
  8   -554.46591736  -0.0000000600  0.000018  0.000033  0.000066  0.000003
  9   -554.46591736   0.0000000016  0.000013  0.000015  0.000022  0.000001
                  ***Gradient check signals convergence***
              ***Rediagonalizing the Fockian in SOSCF/NRSCF***

               *****************************************************
               *                     SUCCESS                       *
               *           SCF CONVERGED AFTER  10 CYCLES          *
               *****************************************************

Old exchange energy                            =     -9.457688271 Eh
New exchange energy                            =     -9.457672584 Eh
Exchange energy change after final integration =      0.000015687 Eh
Total energy after final integration           =   -554.465901685 Eh
Final COS-X integration done in                =     1.326 sec

----------------
TOTAL SCF ENERGY
----------------

Total Energy       :         -554.46590168 Eh          -15087.78423 eV

Components:
Nuclear Repulsion  :          201.91321699 Eh            5494.33796 eV
Electronic Energy  :         -756.37911867 Eh          -20582.12219 eV
One Electron Energy:        -1159.77656189 Eh          -31559.12468 eV
Two Electron Energy:          403.39744322 Eh           10977.00249 eV
Max COSX asymmetry :            0.00000160 Eh               0.00004 eV

Virial components:
Potential Energy   :        -1109.73669847 Eh          -30197.47078 eV
Kinetic Energy     :          555.27079678 Eh           15109.68654 eV
Virial Ratio       :            1.99855045


DFT components:
N(Alpha)           :       22.000001342835 electrons
N(Beta)            :       22.000001342835 electrons
N(Total)           :       44.000002685670 electrons
E(X)               :      -37.555778423735 Eh       
E(C)               :       -1.864621738022 Eh       
E(XC)              :      -39.420400161757 Eh       
DFET-embed. en.    :        0.000000000000 Eh       

---------------
SCF CONVERGENCE
---------------

  Last Energy change         ...   -1.0835e-08  Tolerance :   1.0000e-08
  Last MAX-Density change    ...    4.8850e-15  Tolerance :   1.0000e-07
  Last RMS-Density change    ...    9.0080e-17  Tolerance :   5.0000e-09
  Last Orbital Gradient      ...    1.4971e-06  Tolerance :   1.0000e-05
  Last Orbital Rotation      ...    1.9867e-06  Tolerance :   1.0000e-05

             **** THE GBW FILE WAS UPDATED (_1_force.gbw) ****
             **** DENSITY _1_force.scfp WAS UPDATED ****
             **** ENERGY FILE WAS UPDATED (_1_force.en.tmp) ****
             **** THE GBW FILE WAS UPDATED (_1_force.gbw) ****
             **** DENSITY _1_force.scfp WAS UPDATED ****
----------------
ORBITAL ENERGIES
----------------

  NO   OCC          E(Eh)            E(eV) 
   0   2.0000     -89.474505     -2434.7251 
   1   2.0000     -10.206159      -277.7237 
   2   2.0000     -10.199861      -277.5523 
   3   2.0000     -10.184731      -277.1406 
   4   2.0000     -10.183348      -277.1030 
   5   2.0000      -8.021738      -218.2826 
   6   2.0000      -5.943929      -161.7425 
   7   2.0000      -5.940203      -161.6412 
   8   2.0000      -5.937457      -161.5664 
   9   2.0000      -0.870877       -23.6978 
  10   2.0000      -0.729783       -19.8584 
  11   2.0000      -0.710356       -19.3298 
  12   2.0000      -0.559644       -15.2287 
  13   2.0000      -0.547793       -14.9062 
  14   2.0000      -0.513521       -13.9736 
  15   2.0000      -0.412415       -11.2224 
  16   2.0000      -0.391700       -10.6587 
  17   2.0000      -0.388123       -10.5614 
  18   2.0000      -0.375491       -10.2176 
  19   2.0000      -0.343137        -9.3372 
  20   2.0000      -0.250262        -6.8100 
  21   2.0000      -0.234941        -6.3931 
  22   0.0000      -0.013509        -0.3676 
  23   0.0000       0.056030         1.5246 
  24   0.0000       0.060247         1.6394 
  25   0.0000       0.076933         2.0935 
  26   0.0000       0.107853         2.9348 
  27   0.0000       0.116117         3.1597 
  28   0.0000       0.144796         3.9401 
  29   0.0000       0.152293         4.1441 
  30   0.0000       0.273182         7.4337 
  31   0.0000       0.309864         8.4318 
  32   0.0000       0.345840         9.4108 
  33   0.0000       0.399494        10.8708 
  34   0.0000       0.411079        11.1860 
  35   0.0000       0.418978        11.4010 
  36   0.0000       0.445724        12.1288 
  37   0.0000       0.462174        12.5764 
  38   0.0000       0.489007        13.3065 
  39   0.0000       0.517247        14.0750 
  40   0.0000       0.525173        14.2907 
  41   0.0000       0.544215        14.8088 
  42   0.0000       0.575986        15.6734 
  43   0.0000       0.592139        16.1129 
  44   0.0000       0.632981        17.2243 
  45   0.0000       0.636733        17.3264 
  46   0.0000       0.672248        18.2928 
  47   0.0000       0.689649        18.7663 
  48   0.0000       0.706650        19.2289 
  49   0.0000       0.708086        19.2680 
  50   0.0000       0.722272        19.6540 
  51   0.0000       0.731209        19.8972 
  52   0.0000       0.765679        20.8352 
  53   0.0000       0.774163        21.0660 
  54   0.0000       0.780057        21.2264 
  55   0.0000       0.824211        22.4279 
  56   0.0000       0.913910        24.8687 
  57   0.0000       0.979382        26.6503 
  58   0.0000       1.136267        30.9194 
  59   0.0000       1.151766        31.3411 
  60   0.0000       1.182349        32.1734 
  61   0.0000       1.213114        33.0105 
  62   0.0000       1.259905        34.2837 
  63   0.0000       1.280635        34.8479 
  64   0.0000       1.319429        35.9035 
  65   0.0000       1.519197        41.3395 
  66   0.0000       1.576877        42.9090 
  67   0.0000       1.645581        44.7785 
  68   0.0000       1.684748        45.8443 
  69   0.0000       1.729631        47.0657 
  70   0.0000       1.746772        47.5321 
  71   0.0000       1.780338        48.4455 
  72   0.0000       1.814598        49.3777 
  73   0.0000       1.902510        51.7699 
  74   0.0000       1.953744        53.1641 
  75   0.0000       1.954193        53.1763 
  76   0.0000       1.982729        53.9528 
  77   0.0000       2.031510        55.2802 
  78   0.0000       2.061277        56.0902 
  79   0.0000       2.104852        57.2759 
  80   0.0000       2.154648        58.6309 
  81   0.0000       2.167108        58.9700 
  82   0.0000       2.347666        63.8832 
  83   0.0000       2.365753        64.3754 
  84   0.0000       2.384517        64.8860 
  85   0.0000       2.434930        66.2578 
  86   0.0000       2.540211        69.1226 
  87   0.0000       2.678176        72.8769 
  88   0.0000       2.709584        73.7315 
  89   0.0000       2.754360        74.9499 
  90   0.0000       2.772554        75.4450 
  91   0.0000       3.063268        83.3558 
  92   0.0000       3.094476        84.2050 
  93   0.0000       3.474501        94.5460 
  94   0.0000       6.429885       174.9661 
  95   0.0000     212.348621      5778.2998 
------------------
MOLECULAR ORBITALS
------------------
                      0         1         2         3         4         5   
                 -89.47451 -10.20616 -10.19986 -10.18473 -10.18335  -8.02174
                   2.00000   2.00000   2.00000   2.00000   2.00000   2.00000
                  --------  --------  --------  --------  --------  --------
  0S   1s        -0.951815 -0.000025  0.000025  0.000002 -0.000001  0.290383
  0S   2s        -0.035794 -0.000042  0.000042  0.000003 -0.000002  0.108058
  0S   3s        -0.040342  0.000724 -0.000714 -0.000045  0.000031 -0.570601
  0S   4s        -0.016521  0.001575 -0.001546 -0.000090  0.000059  0.518839
  0S   5s        -0.005627  0.001961 -0.001901 -0.000133  0.000088 -0.048805
  0S   6s        -0.004035  0.005889 -0.005895 -0.003932  0.003646 -0.025280
  0S   1pz       -0.000000  0.000000  0.000001  0.000000  0.000000 -0.000038
  0S   1px       -0.000009 -0.000252  0.000247  0.000034 -0.000025 -0.007094
  0S   1py       -0.000000  0.000254  0.000244  0.000035  0.000031  0.000028
  0S   2pz        0.000000 -0.000002 -0.000002 -0.000002 -0.000001 -0.000004
  0S   2px       -0.000282  0.000740 -0.000705 -0.000077  0.000039 -0.002340
  0S   2py        0.000002 -0.000726 -0.000673 -0.000213 -0.000197  0.000012
  0S   3pz        0.000001 -0.000006  0.000009  0.000004  0.000007  0.000002
  0S   3px       -0.000877  0.000845 -0.000850 -0.001068  0.000997 -0.004900
  0S   3py       -0.000001 -0.000703 -0.000827 -0.000210 -0.000177 -0.000001
  0S   1dz2      -0.000022 -0.001494  0.001487  0.000047 -0.000030  0.000186
  0S   1dxz      -0.000000  0.000000 -0.000014 -0.000002 -0.000001 -0.000002
  0S   1dyz      -0.000000  0.000006 -0.000010  0.000000 -0.000005 -0.000004
  0S   1dx2y2     0.000002  0.000057 -0.000079 -0.000461  0.000428  0.000103
  0S   1dxy       0.000004 -0.002037 -0.001985 -0.000181 -0.000159  0.000020
  1C   1s        -0.000042 -0.987368  0.001958  0.000572 -0.005049 -0.000197
  1C   2s         0.000173 -0.051102 -0.000659  0.000466 -0.004558  0.001134
  1C   3s         0.001180 -0.032920  0.002016  0.000334 -0.016166  0.006745
  1C   1pz        0.000000  0.000022 -0.000000 -0.000001  0.000001  0.000000
  1C   1px       -0.000106 -0.000319 -0.000049 -0.000111 -0.002863 -0.000621
  1C   1py        0.000074  0.000695 -0.000139  0.000124 -0.000869  0.000438
  1C   2pz       -0.000000  0.000008  0.000006  0.000014  0.000003 -0.000001
  1C   2px        0.000216  0.001467 -0.000227  0.001696  0.002369  0.001081
  1C   2py       -0.000160  0.003213  0.001575 -0.003894  0.001137 -0.000874
  1C   1dz2      -0.000103  0.002359 -0.000135  0.000139  0.001445 -0.000519
  1C   1dxz      -0.000001 -0.000014 -0.000001  0.000002 -0.000004 -0.000002
  1C   1dyz      -0.000000 -0.000037  0.000001  0.000002  0.000002  0.000000
  1C   1dx2y2     0.000003  0.000869 -0.000313  0.000236 -0.001028  0.000003
  1C   1dxy      -0.000202 -0.001579  0.000138 -0.000123 -0.001453 -0.000847
  2C   1s        -0.000002 -0.006234  0.000584 -0.030102  0.986640  0.000001
  2C   2s         0.000063  0.004039 -0.000317  0.002338  0.053496  0.000242
  2C   3s        -0.000220  0.012483  0.001050  0.011160  0.041412 -0.001329
  2C   1pz       -0.000000  0.000008  0.000005  0.000011  0.000080 -0.000001
  2C   1px       -0.000022 -0.002495  0.000195  0.000238  0.000531 -0.000038
  2C   1py        0.000022 -0.001350  0.000172  0.002513 -0.000524  0.000111
  2C   2pz        0.000002 -0.000045 -0.000008 -0.000041 -0.000043  0.000008
  2C   2px        0.000034 -0.001138 -0.003928 -0.000787  0.004682  0.000121
  2C   2py       -0.000141  0.000447 -0.001359  0.000788 -0.001160 -0.000842
  2C   1dz2       0.000019 -0.001462 -0.000181 -0.001393 -0.002914  0.000093
  2C   1dxz       0.000000  0.000008 -0.000002 -0.000003  0.000086  0.000001
  2C   1dyz      -0.000000  0.000000  0.000003  0.000003 -0.000051 -0.000001
  2C   1dx2y2     0.000011  0.001494 -0.000008 -0.001733  0.000658 -0.000012
  2C   1dxy       0.000015  0.000844 -0.000265 -0.000293 -0.001306  0.000087
  3C   1s        -0.000002 -0.000360  0.011285 -0.986655 -0.028913  0.000002
  3C   2s         0.000066  0.000334 -0.003989 -0.052817 -0.005487  0.000258
  3C   3s        -0.000145 -0.000043 -0.013153 -0.039892 -0.014425 -0.000983
  3C   1pz        0.000000  0.000001 -0.000006  0.000046  0.000011  0.000001
  3C   1px       -0.000023 -0.000172  0.002718 -0.000136 -0.000210 -0.000035
  3C   1py       -0.000022  0.000188 -0.001374 -0.000610  0.002485 -0.000107
  3C   2pz       -0.000003  0.000015 -0.000038 -0.000031 -0.000042 -0.000013
  3C   2px        0.000058  0.004052  0.000977 -0.004477 -0.000075  0.000229
  3C   2py        0.000163 -0.000898 -0.000105 -0.001310  0.001002  0.000952
  3C   1dz2       0.000021  0.000194  0.001451  0.002795  0.001532  0.000100
  3C   1dxz      -0.000000 -0.000003  0.000025  0.000064  0.000001 -0.000000
  3C   1dyz      -0.000000 -0.000004 -0.000001  0.000036 -0.000004 -0.000001
  3C   1dx2y2     0.000011  0.000008 -0.001486 -0.000624  0.001722 -0.000009
  3C   1dxy      -0.000019 -0.000250  0.000861 -0.001040 -0.000304 -0.000098
  4C   1s        -0.000041  0.001901  0.987232  0.010120 -0.000308 -0.000199
  4C   2s         0.000171  0.000830  0.052130  0.005182 -0.000167  0.001132
  4C   3s         0.001156 -0.002250  0.034225  0.016287  0.001843  0.006637
  4C   1pz       -0.000000  0.000003 -0.000102 -0.000020 -0.000010 -0.000004
  4C   1px       -0.000103  0.000057  0.000299  0.002923  0.000263 -0.000609
  4C   1py       -0.000066 -0.000141  0.001149 -0.000794  0.000109 -0.000396
  4C   2pz        0.000005 -0.000024  0.000102  0.000050  0.000059  0.000024
  4C   2px        0.000231  0.000183 -0.001329 -0.002012 -0.002254  0.001149
  4C   2py        0.000147  0.001381  0.003160  0.001296 -0.003711  0.000804
  4C   1dz2      -0.000101  0.000127 -0.002520 -0.001472 -0.000233 -0.000519
  4C   1dxz       0.000000 -0.000000  0.000027 -0.000005  0.000003  0.000002
  4C   1dyz       0.000002 -0.000002 -0.000097 -0.000009  0.000002  0.000005
  4C   1dx2y2    -0.000000  0.000304 -0.001035  0.000938 -0.000181 -0.000011
  4C   1dxy       0.000198  0.000129 -0.001827 -0.001423 -0.000213  0.000834
  5H   1s         0.000088  0.005622  0.000301 -0.000530  0.000012  0.000399
  5H   2s         0.000084 -0.006449  0.000731 -0.001129 -0.001751  0.000426
  5H   1pz       -0.000000  0.000036  0.000000 -0.000005  0.000005 -0.000000
  5H   1px       -0.000011  0.000769 -0.000030 -0.000161  0.000287  0.000020
  5H   1py       -0.000001  0.003836 -0.000111  0.000150  0.000433 -0.000100
  6H   1s        -0.000031  0.000188  0.000420  0.000424 -0.006468 -0.000169
  6H   2s        -0.000079  0.002308  0.001037  0.002038  0.008055 -0.000414
  6H   1pz        0.000000  0.000012 -0.000004  0.000009  0.000101  0.000000
  6H   1px       -0.000002  0.000693  0.000264  0.000225  0.003175 -0.000010
  6H   1py        0.000009 -0.000088  0.000112 -0.000471 -0.002248  0.000068
  7H   1s        -0.000032 -0.000435 -0.000219  0.005813 -0.000140 -0.000181
  7H   2s        -0.000077 -0.000980 -0.002042 -0.007328 -0.002389 -0.000400
  7H   1pz        0.000000 -0.000006  0.000007  0.000075  0.000011  0.000000
  7H   1px       -0.000003 -0.000237 -0.000662 -0.003173 -0.000313 -0.000009
  7H   1py       -0.000010  0.000104  0.000015 -0.002275 -0.000580 -0.000066
  8H   1s         0.000086 -0.000281 -0.006583 -0.000264  0.000504  0.000376
  8H   2s         0.000093 -0.000738  0.007411  0.001920  0.001436  0.000480
  8H   1pz       -0.000001  0.000000 -0.000116 -0.000018 -0.000000 -0.000004
  8H   1px       -0.000018  0.000041 -0.000694 -0.000368  0.000154 -0.000009
  8H   1py        0.000010 -0.000116  0.003790  0.000581  0.000229  0.000148
                      6         7         8         9        10        11   
                  -5.94393  -5.94020  -5.93746  -0.87088  -0.72978  -0.71036
                   2.00000   2.00000   2.00000   2.00000   2.00000   2.00000
                  --------  --------  --------  --------  --------  --------
  0S   1s        -0.000023  0.002247  0.000003  0.047899 -0.055419 -0.001017
  0S   2s        -0.000009  0.000850  0.000001  0.020267 -0.023521 -0.000432
  0S   3s         0.000040 -0.004258 -0.000009 -0.142564  0.166648  0.003080
  0S   4s        -0.000062  0.005290 -0.000003  0.162992 -0.190421 -0.003446
  0S   5s        -0.000045  0.004410 -0.000014  0.419096 -0.511523 -0.009512
  0S   6s        -0.000060  0.008154  0.000003 -0.120528  0.146589  0.004567
  0S   1pz        0.006862  0.004057  0.982668 -0.000030  0.000026 -0.000052
  0S   1px       -0.006008  0.982190 -0.004015 -0.054303  0.018932  0.000692
  0S   1py        0.982041  0.005988 -0.006887  0.000159 -0.001201 -0.062525
  0S   2pz        0.000341  0.000200  0.048026  0.000065 -0.000065  0.000090
  0S   2px       -0.000318  0.049703 -0.000201  0.089658 -0.037030 -0.001265
  0S   2py        0.050103  0.000293 -0.000344 -0.000255  0.002020  0.103905
  0S   3pz        0.000055  0.000030  0.008179  0.000044 -0.000015 -0.000014
  0S   3px       -0.000055  0.011300 -0.000028 -0.053088  0.002088  0.001216
  0S   3py        0.009923  0.000060 -0.000053 -0.000020 -0.000774 -0.072761
  0S   1dz2       0.000015 -0.000340  0.000005 -0.023871  0.011376  0.000115
  0S   1dxz       0.000006  0.000006  0.000273  0.000024 -0.000019  0.000018
  0S   1dyz       0.000006  0.000001 -0.000003  0.000065 -0.000077 -0.000048
  0S   1dx2y2    -0.000002  0.000449 -0.000002  0.007553  0.011961 -0.000433
  0S   1dxy       0.001423 -0.000009 -0.000010 -0.000013  0.000648  0.036536
  1C   1s        -0.000092  0.000079  0.000000 -0.122352  0.006364  0.166484
  1C   2s        -0.000071 -0.000335  0.000003  0.239797 -0.016723 -0.337166
  1C   3s        -0.004064 -0.005403  0.000041 -0.040381  0.009419  0.121742
  1C   1pz       -0.000002 -0.000001 -0.000173  0.000159  0.000216  0.000008
  1C   1px       -0.000693  0.000335  0.000002  0.001310  0.137785 -0.041545
  1C   1py        0.000297 -0.000293  0.000001  0.083200 -0.018029 -0.010157
  1C   2pz        0.000032  0.000004  0.001331  0.000127  0.000125 -0.000127
  1C   2px        0.004606 -0.000392 -0.000021 -0.001521  0.039508 -0.014163
  1C   2py        0.004157  0.000933 -0.000028  0.014587 -0.010000 -0.014749
  1C   1dz2      -0.000666  0.000492  0.000001 -0.010397  0.000143  0.008741
  1C   1dxz      -0.000001  0.000003  0.000133  0.000027  0.000048 -0.000059
  1C   1dyz      -0.000001 -0.000002 -0.000175  0.000054  0.000001 -0.000074
  1C   1dx2y2     0.000242  0.000311 -0.000002 -0.001727  0.003546 -0.005111
  1C   1dxy      -0.001071  0.000859  0.000002 -0.001956  0.013404 -0.000296
  2C   1s         0.000024 -0.000017  0.000000 -0.107483 -0.155231  0.106985
  2C   2s         0.000019 -0.000248 -0.000002  0.202777  0.306129 -0.211461
  2C   3s         0.010387  0.001173 -0.000126 -0.046802 -0.079774  0.021924
  2C   1pz       -0.000002  0.000002 -0.000023  0.000045  0.000568 -0.000386
  2C   1px       -0.000022  0.000075 -0.000001 -0.064660  0.005360  0.068683
  2C   1py        0.000017  0.000009  0.000001  0.036991  0.061237  0.087379
  2C   2pz        0.000009 -0.000006 -0.000229 -0.000174 -0.000124  0.000033
  2C   2px        0.004422 -0.000072 -0.000014 -0.014575 -0.000022  0.005775
  2C   2py       -0.001749  0.000610  0.000036  0.007519  0.021271  0.033288
  2C   1dz2       0.000102 -0.000127 -0.000001 -0.008142 -0.007381  0.003935
  2C   1dxz      -0.000001 -0.000000  0.000003  0.000018  0.000080 -0.000084
  2C   1dyz       0.000000 -0.000000  0.000078  0.000002 -0.000057  0.000024
  2C   1dx2y2     0.000126  0.000074 -0.000001  0.000760 -0.006754 -0.009551
  2C   1dxy      -0.000035 -0.000237  0.000001 -0.000819 -0.000343 -0.006244
  3C   1s        -0.000025 -0.000019  0.000000 -0.109605 -0.153972 -0.101763
  3C   2s         0.000007 -0.000257  0.000004  0.207212  0.304988  0.201945
  3C   3s        -0.010687  0.000822  0.000100 -0.043567 -0.076428 -0.019573
  3C   1pz       -0.000002 -0.000002 -0.000021 -0.000003 -0.000185 -0.000376
  3C   1px        0.000026  0.000060  0.000001 -0.067007  0.002652 -0.075671
  3C   1py        0.000009 -0.000015 -0.000002 -0.035848 -0.061812  0.097220
  3C   2pz        0.000028  0.000011 -0.000226  0.000067  0.000110 -0.000261
  3C   2px       -0.004360 -0.000164  0.000024 -0.011906  0.005660 -0.004375
  3C   2py       -0.001658 -0.000738  0.000068 -0.005520 -0.020355  0.038355
  3C   1dz2      -0.000097 -0.000132  0.000002 -0.008430 -0.007375 -0.003805
  3C   1dxz      -0.000002 -0.000000 -0.000001 -0.000012 -0.000072 -0.000038
  3C   1dyz       0.000000 -0.000000 -0.000080 -0.000019 -0.000069 -0.000025
  3C   1dx2y2    -0.000131  0.000077 -0.000000  0.000930 -0.006981  0.009920
  3C   1dxy      -0.000038  0.000251 -0.000002  0.000393 -0.000317 -0.007091
  4C   1s         0.000093  0.000084 -0.000001 -0.124709  0.002440 -0.172730
  4C   2s         0.000092 -0.000330 -0.000000  0.241897 -0.008522  0.345522
  4C   3s         0.004207 -0.005381 -0.000001 -0.042531  0.002557 -0.123511
  4C   1pz        0.000004  0.000003 -0.000162 -0.000607  0.000026 -0.001539
  4C   1px        0.000668  0.000330 -0.000004  0.003126  0.136452  0.043333
  4C   1py        0.000260  0.000257 -0.000001 -0.081638  0.015046  0.000762
  4C   2pz       -0.000020 -0.000024  0.001325  0.000066 -0.000084 -0.000108
  4C   2px       -0.004653 -0.000490  0.000002 -0.000459  0.040250  0.013650
  4C   2py        0.004307 -0.000782 -0.000070 -0.017820  0.009130 -0.018698
  4C   1dz2       0.000655  0.000497 -0.000005 -0.010397 -0.000005 -0.008743
  4C   1dxz      -0.000001  0.000000  0.000123 -0.000003 -0.000092  0.000008
  4C   1dyz      -0.000008 -0.000006  0.000175  0.000032  0.000016 -0.000115
  4C   1dx2y2    -0.000232  0.000319  0.000003 -0.001613  0.003571  0.004810
  4C   1dxy      -0.001056 -0.000871  0.000006  0.001765 -0.013247 -0.000669
  5H   1s         0.000928 -0.000089 -0.000001  0.036812 -0.010580 -0.104783
  5H   2s         0.001127 -0.000935 -0.000002  0.010666 -0.002738 -0.022390
  5H   1pz        0.000001  0.000000 -0.000159  0.000029 -0.000013 -0.000087
  5H   1px       -0.000062  0.000138  0.000002  0.001206  0.001757 -0.003359
  5H   1py       -0.000020 -0.000068  0.000001  0.005419 -0.001329 -0.010336
  6H   1s        -0.000270  0.000016  0.000001  0.034349  0.094759 -0.071862
  6H   2s        -0.000377  0.000347 -0.000010  0.008627  0.020653 -0.013102
  6H   1pz        0.000006  0.000002  0.000026 -0.000080 -0.000205  0.000149
  6H   1px       -0.000078  0.000070 -0.000000 -0.005125 -0.008741  0.008354
  6H   1py       -0.000019 -0.000090  0.000000  0.003360  0.007043 -0.002991
  7H   1s         0.000251  0.000032 -0.000006  0.032524  0.087004  0.065008
  7H   2s         0.000279  0.000338 -0.000004  0.007477  0.017325  0.010098
  7H   1pz        0.000002 -0.000002  0.000023  0.000059  0.000139  0.000108
  7H   1px        0.000069  0.000066 -0.000000 -0.004864 -0.008013 -0.007757
  7H   1py       -0.000025  0.000093 -0.000002 -0.003168 -0.006481 -0.002602
  8H   1s        -0.000925 -0.000102  0.000025  0.042532 -0.009566  0.122422
  8H   2s        -0.001247 -0.001058  0.000026  0.012972 -0.003035  0.027613
  8H   1pz       -0.000011  0.000006 -0.000165  0.000083 -0.000030  0.000273
  8H   1px        0.000091  0.000173  0.000009  0.001474  0.002062  0.004041
  8H   1py       -0.000088  0.000046  0.000001 -0.006439  0.001196 -0.012163
                     12        13        14        15        16        17   
                  -0.55964  -0.54779  -0.51352  -0.41242  -0.39170  -0.38812
                   2.00000   2.00000   2.00000   2.00000   2.00000   2.00000
                  --------  --------  --------  --------  --------  --------
  0S   1s        -0.033673 -0.005264  0.020054  0.001689  0.011045  0.005306
  0S   2s        -0.014347 -0.002241  0.008544  0.000721  0.004724  0.002271
  0S   3s         0.102590  0.015992 -0.061066 -0.005182 -0.034101 -0.016410
  0S   4s        -0.116637 -0.018436  0.070368  0.005960  0.038462  0.018392
  0S   5s        -0.322771 -0.050729  0.193677  0.015143  0.102247  0.048021
  0S   6s         0.138657  0.022855 -0.102294 -0.027914 -0.136847 -0.060564
  0S   1pz        0.000342  0.000254  0.000343 -0.003734 -0.005006  0.003798
  0S   1px       -0.014283 -0.008065  0.065426 -0.000082  0.006004  0.014495
  0S   1py       -0.002596  0.101474  0.017685 -0.062297  0.059683 -0.146372
  0S   2pz       -0.000592 -0.000458 -0.000593  0.006599  0.008846 -0.006714
  0S   2px        0.020142  0.013121 -0.110689  0.000333 -0.009639 -0.025519
  0S   2py        0.004340 -0.176689 -0.031305  0.115200 -0.108885  0.265651
  0S   3pz        0.000560  0.000214  0.000487 -0.006945 -0.009803  0.007474
  0S   3px       -0.033703 -0.014232  0.107784 -0.007796 -0.013291  0.018389
  0S   3py       -0.003452  0.132892  0.024734 -0.082574  0.096911 -0.250163
  0S   1dz2      -0.003959 -0.001135  0.008624  0.000527  0.005235  0.003503
  0S   1dxz      -0.000181 -0.000115 -0.000159  0.001360  0.001620 -0.001251
  0S   1dyz      -0.000097  0.000083 -0.000046  0.000424 -0.000196  0.000257
  0S   1dx2y2    -0.009697  0.003609 -0.034602  0.004202  0.022999  0.006110
  0S   1dxy       0.000270 -0.036963 -0.006503  0.040138 -0.022100  0.041164
  1C   1s        -0.124750 -0.075779  0.000638  0.031459  0.008003 -0.024594
  1C   2s         0.261942  0.162103 -0.001716 -0.079903 -0.010355  0.052934
  1C   3s        -0.092718 -0.083431 -0.025521  0.102979  0.046621 -0.056161
  1C   1pz       -0.001009 -0.001408 -0.000792  0.004565  0.011586 -0.009094
  1C   1px        0.064004 -0.179999 -0.121991 -0.066703  0.119740  0.283110
  1C   1py       -0.138480 -0.027831 -0.174873 -0.274739  0.222325 -0.094298
  1C   2pz       -0.000347 -0.000503 -0.000331  0.002578  0.006159 -0.005008
  1C   2px        0.002848 -0.054082 -0.048891 -0.038170  0.068131  0.125600
  1C   2py       -0.047205  0.014754 -0.072502 -0.118918  0.063278 -0.040142
  1C   1dz2      -0.003425 -0.003998  0.000965 -0.000010  0.001588  0.003288
  1C   1dxz       0.000032 -0.000077  0.000076  0.000152  0.000081 -0.000160
  1C   1dyz       0.000075  0.000030  0.000030  0.000496  0.000411 -0.000479
  1C   1dx2y2    -0.001715 -0.006816  0.005843 -0.006683  0.016815 -0.004273
  1C   1dxy       0.004669 -0.005112 -0.005294  0.002751 -0.013962  0.013629
  2C   1s         0.035923  0.123668 -0.011745  0.019596 -0.002033  0.021915
  2C   2s        -0.074019 -0.255933  0.021222 -0.051861 -0.004768 -0.045068
  2C   3s         0.001601  0.133224 -0.045423 -0.016038 -0.005671  0.096667
  2C   1pz       -0.000883 -0.002941  0.001896  0.009091  0.011228 -0.012478
  2C   1px       -0.122134 -0.087797  0.248342  0.208473 -0.024304 -0.229936
  2C   1py       -0.168427  0.116153 -0.081967 -0.106140 -0.351250 -0.099243
  2C   2pz       -0.000059 -0.000508  0.000485  0.003646  0.005124 -0.005806
  2C   2px       -0.036785 -0.008872  0.071054  0.014272 -0.016725 -0.054249
  2C   2py       -0.053336  0.008242 -0.021874 -0.051834 -0.106983 -0.043572
  2C   1dz2       0.001084  0.002991 -0.000769 -0.002117 -0.001159  0.001211
  2C   1dxz      -0.000008 -0.000240  0.000275 -0.000012 -0.000249  0.000152
  2C   1dyz       0.000031  0.000151 -0.000233  0.000130 -0.000019 -0.000181
  2C   1dx2y2     0.006675 -0.004776 -0.002954 -0.005395  0.016818  0.000032
  2C   1dxy       0.006464  0.006493  0.003330 -0.012085 -0.008141  0.019203
  3C   1s         0.060545 -0.112924 -0.035776 -0.013336  0.021425 -0.019241
  3C   2s        -0.126183  0.235241  0.073797  0.032766 -0.055403  0.034920
  3C   3s         0.034628 -0.124216 -0.049329  0.029205  0.046420 -0.097453
  3C   1pz       -0.000179 -0.001484 -0.002311  0.009558  0.007458 -0.011817
  3C   1px       -0.117348  0.007037  0.250370 -0.228075 -0.073348  0.194256
  3C   1py        0.145970  0.119495  0.111779  0.060868  0.349007  0.129766
  3C   2pz       -0.000349 -0.000339 -0.000617  0.004236  0.003876 -0.005503
  3C   2px       -0.035479 -0.011928  0.084124 -0.028892 -0.034124  0.039455
  3C   2py        0.055290  0.010726  0.036855 -0.004264  0.119582  0.035376
  3C   1dz2       0.001497 -0.002479 -0.001014  0.001593 -0.000986 -0.001554
  3C   1dxz       0.000129 -0.000192 -0.000125 -0.000350 -0.000503  0.000067
  3C   1dyz       0.000038  0.000018 -0.000220 -0.000106 -0.000368  0.000226
  3C   1dx2y2     0.004838  0.005781 -0.002691  0.012497  0.010015  0.007247
  3C   1dxy      -0.006911  0.006182 -0.003234 -0.010559  0.000079  0.021093
  4C   1s        -0.124347  0.055694  0.015297 -0.034251  0.004332  0.031306
  4C   2s         0.256442 -0.118657 -0.034607  0.088320 -0.008743 -0.064798
  4C   3s        -0.088146  0.071684 -0.020647 -0.094455  0.042040  0.082776
  4C   1pz       -0.003017  0.001087 -0.001960  0.011095  0.008982 -0.005748
  4C   1px        0.028455  0.216658 -0.060304  0.135796  0.217297 -0.157525
  4C   1py        0.163626 -0.052151  0.181499 -0.323413 -0.016410 -0.147848
  4C   2pz       -0.000569  0.000061 -0.000989  0.005050  0.004706 -0.003433
  4C   2px       -0.005943  0.064382 -0.023961  0.069095  0.103950 -0.067442
  4C   2py        0.042168  0.008538  0.068863 -0.115232  0.022094 -0.042214
  4C   1dz2      -0.003647  0.003327  0.001701  0.001268  0.002989 -0.001258
  4C   1dxz       0.000099 -0.000219  0.000031 -0.000080 -0.000157 -0.000199
  4C   1dyz      -0.000345  0.000236 -0.000246  0.000106 -0.000380  0.000777
  4C   1dx2y2    -0.004183  0.005827  0.006205  0.012438  0.007379  0.014048
  4C   1dxy      -0.004367 -0.006786  0.002535  0.006499  0.002214  0.017415
  5H   1s         0.179207  0.115726  0.121663  0.187214 -0.226127  0.048463
  5H   2s         0.049035  0.042792  0.024674  0.089068 -0.114955  0.018028
  5H   1pz        0.000094  0.000050  0.000060  0.000200  0.000189 -0.000206
  5H   1px        0.004660 -0.001344  0.000045  0.001599 -0.000004  0.006495
  5H   1py        0.010711  0.006639  0.005884  0.004798 -0.005414  0.000550
  6H   1s        -0.038646 -0.201259  0.172209  0.165627  0.154244 -0.149213
  6H   2s        -0.016801 -0.067062  0.048838  0.088435  0.082321 -0.076140
  6H   1pz        0.000033  0.000268 -0.000228  0.000036  0.000130 -0.000182
  6H   1px       -0.000371  0.010384 -0.005030 -0.001289 -0.006372 -0.001051
  6H   1py       -0.004920 -0.005485  0.005251  0.002619 -0.004379 -0.005889
  7H   1s        -0.062241  0.148140  0.202601 -0.108551  0.090358  0.229343
  7H   2s        -0.024030  0.051972  0.058198 -0.057587  0.052068  0.120050
  7H   1pz       -0.000068  0.000158  0.000174  0.000139  0.000276 -0.000111
  7H   1px        0.001225 -0.008782 -0.007169 -0.001230 -0.005877 -0.003627
  7H   1py        0.005272 -0.003502 -0.006234  0.004960  0.005129 -0.003349
  8H   1s         0.208234 -0.120030  0.104300 -0.239818 -0.071555 -0.134400
  8H   2s         0.060582 -0.041437  0.017282 -0.115935 -0.040560 -0.062691
  8H   1pz        0.000291 -0.000181  0.000150  0.000009  0.000174 -0.000312
  8H   1px        0.004428  0.002332  0.000813 -0.000266  0.004439 -0.004632
  8H   1py       -0.011907  0.006172 -0.004419  0.004488  0.001417  0.002115
                     18        19        20        21        22        23   
                  -0.37549  -0.34314  -0.25026  -0.23494  -0.01351   0.05603
                   2.00000   2.00000   2.00000   2.00000   0.00000   0.00000
                  --------  --------  --------  --------  --------  --------
  0S   1s        -0.000507  0.023102  0.000009  0.000061  0.000258  0.000182
  0S   2s        -0.000217  0.009934  0.000004  0.000026  0.000111  0.000077
  0S   3s         0.001570 -0.072699 -0.000025 -0.000196 -0.000799 -0.000536
  0S   4s        -0.001761  0.076595  0.000048  0.000190  0.000979  0.000797
  0S   5s        -0.004763  0.188679  0.000188  0.000513  0.003196  0.003776
  0S   6s         0.005405 -0.242734 -0.000093  0.000086 -0.002275  0.003890
  0S   1pz       -0.142480 -0.000462 -0.198661  0.010358 -0.126521  0.000084
  0S   1px       -0.000279  0.217110  0.000065  0.000621 -0.000513 -0.000910
  0S   1py       -0.005291  0.006865  0.001472 -0.001166 -0.001277 -0.165094
  0S   2pz        0.252674  0.000821  0.357170 -0.018579  0.226562 -0.000157
  0S   2px        0.000442 -0.391819 -0.000114 -0.001132  0.001018  0.001367
  0S   2py        0.009549 -0.012507 -0.002649  0.002201  0.002267  0.264222
  0S   3pz       -0.283005 -0.000970 -0.490356  0.026740 -0.494222  0.000447
  0S   3px        0.000131  0.429808  0.000077  0.002040 -0.001190 -0.005638
  0S   3py       -0.009718  0.013176  0.003586 -0.001895 -0.004682 -1.068552
  0S   1dz2      -0.000202  0.029828  0.000029 -0.000113  0.000317  0.000738
  0S   1dxz       0.042895  0.000089  0.007791 -0.000047 -0.068776 -0.000026
  0S   1dyz      -0.000106 -0.000064 -0.003693 -0.061688  0.002498  0.000826
  0S   1dx2y2    -0.001173 -0.000561  0.000011  0.000292  0.001367 -0.002333
  0S   1dxy       0.000825 -0.001356  0.000150  0.000460 -0.000667 -0.189050
  1C   1s        -0.003153  0.028163  0.000815  0.000037  0.000151 -0.101225
  1C   2s         0.007132 -0.068251 -0.002006 -0.000237 -0.000103  0.258015
  1C   3s        -0.007231  0.052552  0.000622  0.001946  0.000632 -1.185630
  1C   1pz        0.236639  0.000048  0.006754  0.372106 -0.370424 -0.000318
  1C   1px        0.006172  0.178416 -0.002009  0.000182  0.001888 -0.226419
  1C   1py       -0.004454 -0.110830 -0.000764 -0.004219  0.002475  0.127187
  1C   2pz        0.137401  0.000060  0.024393  0.291052 -0.475146 -0.002111
  1C   2px        0.001967  0.051707 -0.000586 -0.000668  0.004437 -0.174857
  1C   2py       -0.001404 -0.040943  0.000181 -0.003262  0.003845  0.218337
  1C   1dz2       0.000098  0.004102 -0.000052  0.000029 -0.000009  0.004124
  1C   1dxz       0.000108 -0.000044 -0.020709  0.005969  0.004189  0.000239
  1C   1dyz       0.014463  0.000026  0.004220  0.006448  0.005743  0.000017
  1C   1dx2y2    -0.000655  0.009086  0.000169 -0.000257 -0.000487 -0.015716
  1C   1dxy       0.000915  0.016801 -0.000112  0.000257  0.000116  0.005739
  2C   1s         0.001278 -0.034213 -0.000976  0.000867  0.001131  0.013483
  2C   2s        -0.002256  0.081649  0.002130 -0.001914 -0.002357 -0.021741
  2C   3s         0.002113 -0.067282 -0.000320  0.000910  0.007845  0.278258
  2C   1pz        0.218426 -0.001262 -0.281436  0.234054  0.210651  0.002471
  2C   1px       -0.015133 -0.146401  0.004943 -0.002500 -0.002557  0.077407
  2C   1py        0.013838  0.059886 -0.001555  0.002009  0.000966  0.089163
  2C   2pz        0.113269 -0.000267 -0.200562  0.159759  0.277372  0.005553
  2C   2px       -0.003470 -0.062009  0.003991 -0.003846 -0.004100  0.255368
  2C   2py        0.005774  0.010906 -0.002419  0.001674  0.005290  0.224504
  2C   1dz2       0.000153  0.000786 -0.000029 -0.000059 -0.000022  0.000945
  2C   1dxz      -0.010880 -0.000169  0.001087 -0.013661  0.018231  0.000152
  2C   1dyz       0.006465  0.000223 -0.011523 -0.012667  0.018290 -0.000448
  2C   1dx2y2    -0.000457 -0.007700 -0.000017 -0.000149  0.000109  0.013125
  2C   1dxy       0.001546  0.003724 -0.000293 -0.000037 -0.000236 -0.008985
  3C   1s        -0.001463 -0.031921  0.000777 -0.000612 -0.000762 -0.017706
  3C   2s         0.003300  0.076609 -0.001714  0.001558  0.001691  0.032698
  3C   3s        -0.004870 -0.057181  0.000108  0.003460  0.004331 -0.356275
  3C   1pz        0.222086  0.003216 -0.303993 -0.198316  0.195404 -0.006622
  3C   1px        0.019738 -0.167573 -0.004552 -0.002842  0.000524 -0.058072
  3C   1py       -0.009228 -0.062963 -0.001122 -0.001885  0.001735  0.093959
  3C   2pz        0.115017  0.001397 -0.215002 -0.131772  0.257686 -0.012730
  3C   2px        0.005438 -0.070936 -0.003599  0.000264  0.003651 -0.218409
  3C   2py       -0.001353 -0.014021 -0.002298 -0.001162  0.003661  0.246210
  3C   1dz2      -0.000030  0.000891 -0.000007 -0.000038 -0.000072 -0.000808
  3C   1dxz      -0.011125  0.000040  0.002602  0.013808  0.018097 -0.000033
  3C   1dyz      -0.006258  0.000141  0.009976 -0.014487 -0.018831  0.000079
  3C   1dx2y2    -0.000535 -0.007968  0.000039  0.000173  0.000097 -0.013869
  3C   1dxy       0.001138 -0.006040 -0.000315  0.000230  0.000323 -0.011677
  4C   1s         0.000972  0.023636 -0.000683  0.001604  0.002819  0.094537
  4C   2s        -0.002321 -0.058290  0.001636 -0.003734 -0.006539 -0.242246
  4C   3s         0.003028  0.047076 -0.000982  0.001276  0.012778  1.145610
  4C   1pz        0.238390  0.001541 -0.038092 -0.370619 -0.357729  0.005021
  4C   1px       -0.019579  0.200649  0.001970  0.000717  0.002057  0.232684
  4C   1py        0.007358  0.116344 -0.000893 -0.004897 -0.002653  0.142987
  4C   2pz        0.138254  0.001075 -0.008190 -0.292585 -0.458458  0.013098
  4C   2px       -0.009462  0.062481  0.000886  0.001768  0.005027  0.171874
  4C   2py        0.001891  0.044792  0.000499 -0.005295 -0.006754  0.250457
  4C   1dz2      -0.000377  0.004397  0.000045  0.000100 -0.000193 -0.003220
  4C   1dxz       0.000400  0.000008 -0.021064 -0.003812  0.003202 -0.000527
  4C   1dyz      -0.014291 -0.000178 -0.003224  0.006561 -0.006063  0.000286
  4C   1dx2y2    -0.000114  0.007964 -0.000157 -0.000077 -0.000254  0.017255
  4C   1dxy       0.000421 -0.018181 -0.000073 -0.000116 -0.000025  0.006999
  5H   1s         0.005420  0.019666 -0.000228  0.001783  0.002679  0.020890
  5H   2s         0.002552  0.019198  0.000163  0.001653  0.004354 -0.415480
  5H   1pz        0.006028  0.000021  0.000514  0.012130 -0.018032  0.000003
  5H   1px        0.000156  0.004145 -0.000018 -0.000010  0.000075 -0.004870
  5H   1py        0.000064 -0.000368 -0.000006 -0.000127  0.000005 -0.000020
  6H   1s        -0.016375 -0.100855  0.001315  0.000230  0.002589  0.056547
  6H   2s        -0.009588 -0.066042  0.000793  0.000792  0.007291  0.123053
  6H   1pz        0.006023  0.000074 -0.009671  0.008794  0.010894  0.000242
  6H   1px        0.000072 -0.000213  0.000204 -0.000181 -0.000001  0.005139
  6H   1py       -0.000019 -0.001506 -0.000121  0.000036  0.000163  0.002261
  7H   1s         0.009066 -0.124055 -0.001512  0.000797  0.000063 -0.068575
  7H   2s         0.005039 -0.079872 -0.000830  0.000194  0.000175 -0.241818
  7H   1pz        0.005800 -0.000010 -0.010097 -0.007347  0.009718 -0.000253
  7H   1px        0.000243  0.000216 -0.000166 -0.000140  0.000035 -0.005383
  7H   1py       -0.000434  0.002409 -0.000080 -0.000018  0.000247  0.001833
  8H   1s         0.005133  0.026175  0.000259  0.000854  0.004728 -0.028295
  8H   2s         0.004044  0.021325 -0.000909  0.000930  0.009321  0.351657
  8H   1pz        0.006555  0.000113 -0.001005 -0.012763 -0.018125  0.000281
  8H   1px       -0.000403  0.005278  0.000132  0.000020  0.000095  0.006405
  8H   1py        0.000102  0.000266 -0.000016 -0.000289 -0.000098 -0.001298
                     24        25        26        27        28        29   
                   0.06025   0.07693   0.10785   0.11612   0.14480   0.15229
                   0.00000   0.00000   0.00000   0.00000   0.00000   0.00000
                  --------  --------  --------  --------  --------  --------
  0S   1s        -0.000765  0.003754  0.023998 -0.016251  0.002986 -0.031104
  0S   2s        -0.000326  0.001662  0.010320 -0.006995  0.001285 -0.013290
  0S   3s         0.002313 -0.013124 -0.075498  0.051304 -0.009415  0.095495
  0S   4s        -0.003147  0.009393  0.089530 -0.060152  0.011142 -0.125006
  0S   5s        -0.010826 -0.001159  0.258187 -0.169969  0.027903 -0.358179
  0S   6s         0.009953 -0.256925 -0.606780  0.440439 -0.137021  1.348397
  0S   1pz        0.001727  0.000656  0.000254 -0.000182  0.000144 -0.000302
  0S   1px        0.002867 -0.014608 -0.085359  0.058308 -0.008808  0.061248
  0S   1py        0.001764 -0.009982 -0.010994 -0.020016  0.036459  0.003352
  0S   2pz       -0.003209 -0.000939 -0.000416  0.000064 -0.000002  0.000937
  0S   2px       -0.005078  0.032606  0.149064 -0.101572  0.014274 -0.082712
  0S   2py       -0.002915  0.016217  0.024204  0.041621 -0.072526 -0.007906
  0S   3pz        0.007373  0.005298  0.001567 -0.003082  0.003707  0.002144
  0S   3px        0.016191 -0.040380 -0.531526  0.370405 -0.089109  0.927803
  0S   3py        0.009771 -0.069358 -0.034028 -0.076758  0.306437  0.013197
  0S   1dz2      -0.001107  0.009650  0.066705 -0.047942  0.010007 -0.090631
  0S   1dxz       0.000950  0.001331  0.000400 -0.001396  0.000384  0.000559
  0S   1dyz       0.093024 -0.002970  0.001246 -0.001710  0.000782 -0.000353
  0S   1dx2y2     0.001175  0.066020  0.036235 -0.025753  0.007385 -0.056132
  0S   1dxy       0.001455 -0.013589 -0.015319 -0.029177  0.017887 -0.001926
  1C   1s         0.001807  0.063467  0.088710 -0.022703 -0.022393 -0.001694
  1C   2s        -0.003820 -0.138654 -0.212205  0.056200  0.023382  0.020500
  1C   3s         0.030714  0.726729  1.070190  0.177251 -0.094070  0.480791
  1C   1pz       -0.205860  0.008781 -0.000163  0.003239 -0.001990  0.001915
  1C   1px        0.000271  0.045871  0.138428 -0.072581  0.065112 -0.155993
  1C   1py        0.006916  0.134516  0.088029  0.220152 -0.126140  0.226156
  1C   2pz       -0.404863  0.022666 -0.000688  0.011860 -0.001154  0.003609
  1C   2px       -0.003858  0.273824  0.490064 -0.166591  0.151260 -0.802691
  1C   2py        0.014614  0.404043  0.494714  0.472467 -0.664912  0.810261
  1C   1dz2      -0.000060 -0.004345 -0.002927  0.003285  0.001909 -0.000209
  1C   1dxz       0.028710 -0.000984  0.000426 -0.000503 -0.000006 -0.000258
  1C   1dyz       0.001900  0.000054  0.000113 -0.000341 -0.000289  0.000012
  1C   1dx2y2    -0.000528 -0.021593 -0.012072  0.001432 -0.001359  0.017837
  1C   1dxy       0.000848  0.006488 -0.009635  0.010069 -0.012598  0.010240
  2C   1s         0.001673  0.039845 -0.021200  0.043032  0.099882 -0.032253
  2C   2s        -0.003149 -0.095680  0.044699 -0.100274 -0.224337  0.086186
  2C   3s         0.021273  0.799195 -0.092912  0.888732  1.153963 -1.125999
  2C   1pz        0.395426 -0.015723  0.006200 -0.008065 -0.002908 -0.002557
  2C   1px       -0.010669 -0.101934  0.055146 -0.145664 -0.110763 -0.016003
  2C   1py        0.005587  0.086041  0.004119  0.082925  0.013997 -0.127234
  2C   2pz        0.685766 -0.036193  0.016107 -0.025108 -0.010511  0.000918
  2C   2px       -0.022487 -0.233842  0.164100 -0.537537 -0.895146 -0.017550
  2C   2py        0.009268  0.236502 -0.157554  0.246991  0.354881 -0.553182
  2C   1dz2      -0.000122 -0.002480  0.001173  0.000652 -0.005463 -0.000837
  2C   1dxz       0.006594 -0.000385 -0.000042  0.000049  0.000050  0.000192
  2C   1dyz      -0.016748  0.000474 -0.000346  0.000133 -0.000167 -0.000008
  2C   1dx2y2     0.000482  0.006092 -0.004815  0.011915 -0.013615  0.007701
  2C   1dxy      -0.001328 -0.017136  0.006925 -0.005788  0.010845 -0.019273
  3C   1s         0.002943  0.048439 -0.044934 -0.004542 -0.090537 -0.045003
  3C   2s        -0.006451 -0.115813  0.101314  0.015070  0.194116  0.112586
  3C   3s         0.028740  0.807687 -0.784752 -0.378351 -0.864549 -1.217217
  3C   1pz       -0.405511  0.012761 -0.008779  0.004689 -0.004883  0.003088
  3C   1px       -0.007714 -0.117484  0.168504  0.012217  0.115633  0.001735
  3C   1py       -0.006157 -0.074183  0.086731  0.054846 -0.004792  0.124046
  3C   2pz       -0.702763  0.027106 -0.022738  0.018471 -0.014148 -0.003262
  3C   2px       -0.020165 -0.278862  0.518241  0.097006  0.873501  0.094892
  3C   2py       -0.010189 -0.226365  0.279660 -0.009178  0.272289  0.632903
  3C   1dz2      -0.000153 -0.003351  0.000055 -0.000883  0.006509  0.000665
  3C   1dxz      -0.006783 -0.000112 -0.000120  0.000436 -0.000087 -0.000242
  3C   1dyz      -0.015461  0.000627 -0.000167  0.000392  0.000110 -0.000141
  3C   1dx2y2     0.000284  0.002131 -0.013415  0.000646  0.011530  0.008940
  3C   1dxy       0.001346  0.014836 -0.009201  0.003236  0.007287  0.020192
  4C   1s        -0.001471  0.064597  0.046375 -0.074934  0.034146  0.004224
  4C   2s         0.003331 -0.147127 -0.114011  0.182338 -0.055451  0.004405
  4C   3s        -0.003189  0.770798  0.150045 -1.195220  0.228879  0.614819
  4C   1pz        0.221026 -0.000996  0.003714 -0.007597  0.004360 -0.000361
  4C   1px       -0.005571  0.072177  0.112476 -0.098986 -0.028858 -0.161754
  4C   1py       -0.001491 -0.069676  0.176377  0.155421 -0.099100 -0.233209
  4C   2pz        0.434886 -0.000109  0.009602 -0.026191  0.014779  0.007887
  4C   2px       -0.009846  0.301065  0.317249 -0.437193  0.028444 -0.817505
  4C   2py       -0.003760 -0.278495  0.273768  0.679162 -0.628560 -0.910399
  4C   1dz2       0.000122 -0.004225 -0.003703  0.000494 -0.001396  0.000667
  4C   1dxz      -0.029298  0.000882 -0.000553  0.000517 -0.000225  0.000315
  4C   1dyz       0.003030 -0.000308 -0.000039  0.000171  0.000061  0.000197
  4C   1dx2y2    -0.000521 -0.018762 -0.005009  0.011312 -0.002745  0.018980
  4C   1dxy      -0.000683 -0.004271  0.013853 -0.005592 -0.009969 -0.012330
  5H   1s         0.003399  0.100125  0.090223 -0.022795 -0.053521 -0.057734
  5H   2s         0.034440  1.128390  1.405451  0.654215 -0.835742  0.896682
  5H   1pz       -0.011639  0.000389 -0.000157  0.000224  0.000111 -0.000024
  5H   1px       -0.000380 -0.000771  0.007052 -0.006763  0.011755 -0.013649
  5H   1py       -0.000113 -0.009633 -0.009546  0.002005  0.003070  0.004847
  6H   1s         0.007906  0.052972 -0.035051  0.043277  0.012017  0.062291
  6H   2s         0.039701  0.981199 -0.448806  1.346934  1.746164 -0.723700
  6H   1pz        0.022875 -0.000778  0.000267 -0.000087  0.000169 -0.000229
  6H   1px        0.000063  0.004224 -0.005111  0.005563  0.000104  0.003122
  6H   1py       -0.000175 -0.004034 -0.000765  0.000767 -0.007631 -0.005016
  7H   1s         0.007942  0.051484 -0.060525  0.011895 -0.034887  0.059199
  7H   2s         0.044644  0.989599 -1.322588 -0.241077 -1.507537 -0.909661
  7H   1pz       -0.022781  0.000539 -0.000252  0.000494 -0.000082  0.000136
  7H   1px        0.000148  0.003276 -0.007160  0.002452 -0.000463  0.002902
  7H   1py        0.000176  0.005373  0.000786 -0.001599 -0.008170  0.003120
  8H   1s        -0.001562  0.074766  0.045522 -0.061026  0.058084 -0.056555
  8H   2s         0.008480  1.009848 -0.175677 -1.735592  0.971882  1.110663
  8H   1pz        0.012977 -0.000350  0.000428  0.000021  0.000136 -0.000402
  8H   1px       -0.000035  0.000889  0.008954 -0.004702 -0.008858 -0.014491
  8H   1py        0.000233  0.008945  0.005481 -0.008265  0.005711 -0.005553
                     30        31        32        33        34        35   
                   0.27318   0.30986   0.34584   0.39949   0.41108   0.41898
                   0.00000   0.00000   0.00000   0.00000   0.00000   0.00000
                  --------  --------  --------  --------  --------  --------
  0S   1s        -0.022788 -0.000309  0.037649 -0.000267  0.023330  0.012881
  0S   2s        -0.009631 -0.000134  0.015185 -0.000050  0.009525  0.004824
  0S   3s         0.066994  0.001009 -0.090304 -0.000962 -0.059051 -0.020523
  0S   4s        -0.104864 -0.001083  0.248324 -0.007439  0.145283  0.122673
  0S   5s        -0.388622 -0.003921  1.434497 -0.064130  0.892913  0.832998
  0S   6s         0.727721 -0.012679  1.693983 -0.169231  1.510246  1.152766
  0S   1pz       -0.000001  0.000070  0.000254  0.000323 -0.000476  0.000079
  0S   1px        0.040594  0.001352  0.046981 -0.005080  0.008460  0.048060
  0S   1py        0.002774  0.031857  0.002953  0.078548 -0.000149  0.006018
  0S   2pz        0.000139 -0.000410 -0.000316 -0.000666  0.001063 -0.000223
  0S   2px       -0.033468 -0.000805 -0.063781  0.001082 -0.027684 -0.038472
  0S   2py       -0.003633 -0.115474 -0.007048 -0.169342 -0.001012 -0.012802
  0S   3pz        0.001172 -0.001728  0.002415  0.002573 -0.001883  0.000089
  0S   3px        0.919394  0.016257  0.374844 -0.104227  0.150417  0.534506
  0S   3py        0.036783 -0.231024  0.020372  0.636255 -0.003964  0.050108
  0S   1dz2      -0.015073 -0.002425 -0.247203  0.028956 -0.030825 -0.255257
  0S   1dxz       0.000859 -0.001210  0.002685  0.000414 -0.002259  0.000021
  0S   1dyz      -0.000097  0.000769  0.001466  0.000131  0.002336  0.001131
  0S   1dx2y2     0.181642  0.010770  0.046283 -0.022529 -0.259912  0.169198
  0S   1dxy       0.004690 -0.156486  0.000378  0.017888 -0.005966  0.004589
  1C   1s        -0.089107 -0.017473 -0.092236 -0.008778 -0.001608  0.004320
[...]
   0   5   36746.6    272.1   0.000000000   0.00000 (  0.00000, -0.00000) (  0.00000, -0.00000) (  0.00000, -0.00000)
   0   6   36746.6    272.1   0.000000000   0.00000 ( -0.00000, -0.00000) (  0.00000,  0.00000) (  0.00000,  0.00000)
   0   7   48854.5    204.7   0.004856195   0.00162 (  0.00727,  0.03958) (  0.00020,  0.00111) ( -0.00010, -0.00054)
   0   8   49792.4    200.8   0.001995770   0.00068 ( -0.00035,  0.00059) (  0.01337, -0.02233) (  0.00056, -0.00094)

-------------------------------------------------------------------------------------------------------
                                     SOC CORRECTED CD SPECTRUM*  
-------------------------------------------------------------------------------------------------------
   State    Energy  Wavelength      R               MX                    MY                    MZ  
            (cm-1)     (nm)      (1e40*sgs)         (au)                  (au)                  (au) 
-------------------------------------------------------------------------------------------------------
   0   1   29946.5    333.9      0.00000 (  0.00000,  0.00000) (  0.00000,  0.00000) ( -0.00000, -0.00000)
   0   2   29946.5    333.9      0.00000 ( -0.00000, -0.00000) ( -0.00000, -0.00000) (  0.00000,  0.00000)
   0   3   29946.5    333.9      0.00000 ( -0.00000, -0.00000) ( -0.00000, -0.00000) (  0.00000,  0.00000)
   0   4   36746.6    272.1      0.00000 (  0.00000, -0.00000) (  0.00000, -0.00000) (  0.00002, -0.00001)
   0   5   36746.6    272.1      0.00000 ( -0.00000,  0.00000) (  0.00000, -0.00000) ( -0.00001,  0.00000)
   0   6   36746.6    272.1     -0.00000 (  0.00000,  0.00000) ( -0.00000, -0.00000) ( -0.00000, -0.00000)
   0   7   48854.5    204.7      2.49526 ( -0.00135, -0.00734) (  0.00000,  0.00002) ( -0.00595, -0.03240)
   0   8   49792.4    200.8      1.18645 ( -0.00246,  0.00411) ( -0.00025,  0.00041) ( -0.20386,  0.34043)

-------------------------------------------------------------------------------------------------------
                    SOC CORRECTED CD SPECTRUM VIA TRANSITION VELOCITY DIPOLE MOMENTS                   
-------------------------------------------------------------------------------------------------------
   State    Energy  Wavelengt      R               MX                    MY                    MZ  
            (cm-1)    (nm)     (1e40*sgs)         (au)                  (au)                  (au) 
-------------------------------------------------------------------------------------------------------
   0   1   29946.5    333.9      0.00000 (  0.00000,  0.00000) (  0.00000,  0.00000) ( -0.00000, -0.00000)
   0   2   29946.5    333.9      0.00000 ( -0.00000, -0.00000) ( -0.00000, -0.00000) (  0.00000,  0.00000)
   0   3   29946.5    333.9      0.00000 ( -0.00000, -0.00000) ( -0.00000, -0.00000) (  0.00000,  0.00000)
   0   4   36746.6    272.1      0.00000 (  0.00000, -0.00000) (  0.00000, -0.00000) (  0.00002, -0.00001)
   0   5   36746.6    272.1      0.00000 ( -0.00000,  0.00000) (  0.00000, -0.00000) ( -0.00001,  0.00000)
   0   6   36746.6    272.1      0.00000 (  0.00000,  0.00000) ( -0.00000, -0.00000) ( -0.00000, -0.00000)
   0   7   48854.5    204.7      0.59760 ( -0.00135, -0.00734) (  0.00000,  0.00002) ( -0.00595, -0.03240)
   0   8   49792.4    200.8      0.92067 ( -0.00246,  0.00411) ( -0.00025,  0.00041) ( -0.20386,  0.34043)

*The complex numbers are printed as (real, imaginary)

The electronic components of the SOC ground state dipole moment in a.u. are:
           X                     Y                     Z
( -3.61202,  0.00000) (  0.01402, -0.00000) (  0.01417, -0.00000)

Total run time:        5.165 sec

           *** ORCA-CIS/TD-DFT FINISHED WITHOUT ERROR ***

Maximum memory used throughout the entire CIS-calculation: 66.5 MB

---------------------------
SOC CIS/TD-DFT TOTAL ENERGY
---------------------------

    E(SCF)        =   -554.465901685 Eh
    E(SOC CIS)    =      0.136446354 Eh (SOC Root  1)
    ----------------------------- ---------
    E(tot)        =   -554.329455330 Eh


-------------------------   --------------------
FINAL SINGLE POINT ENERGY      -554.329455330404
-------------------------   --------------------



           ************************************************************
           *        Program running with 2 parallel MPI-processes     *
           *              working on a common directory               *
           ************************************************************
------------------------------------------------------------------------------
                         ORCA SCF GRADIENT CALCULATION
------------------------------------------------------------------------------


------------------------
TD-DFT GRADIENT XC SETUP
------------------------

Building densities                     ... done
Calculating rho(r) on the grid         ... done
Building xc-kernel on the grid         ... done
Building xc 3rd derivative on the grid      ... done
                *** TD-DFT GRADIENT CALCULATION INITIALIZED ***

-------------------
TD-DFT/TDA GRADIENT
-------------------

Reference wavefunction             ... RHF
State of interest                  ... 1
Basis dimension                    ... 96
DFT-XC contribution needed         ... YES
RI-approximation                   ... ON
CIS-vectors being read from        ... _1_force.cis

 => Number of Vectors found: 4
 => Orbital Window: 9...21 -> 22...95

Reading the CIS file                     ... done
Norm of the CI vector                    ... 1.000000000
Making the CIS (pseudo)densities         ... done
Making operators G(D) and Q(T)           ... done
Transforming the Fock operators          ... done
Making the frozen-core relaxed density   ... done
Constructing the G(H) operator           ... done
Transforming the G(H) operator           ... done
Calculating the CIS Lagrangian           ... done
Solving the Z-vector equations           ... done
Finalizing the relaxed density           ... done
Storing the relaxed density              ... done
Constructing the G(Z) operator           ... done
Transforming the G(Z) operator           ... done
Making the W-matrix                      ... done
Finalizing the W-matrix                  ... done
Transforming the W-matrix                ... done
Nuclear repulsion gradient               ... done
One-Electron gradient                    ... done
Prescreening matrices                    ... done
COSX-gradient                            ... done
Coulomb gradient (RI)                    ... done
Exchange-Correlation gradient            ... done

                 ---------------------------
                 EXCITED STATE GRADIENT DONE
                 ---------------------------

------------------
CARTESIAN GRADIENT
------------------

   1   S   :    0.030457852    0.002018012    0.000076630
   2   C   :    0.010944227    0.051675874    0.000727865
   3   C   :    0.003461430   -0.005857501   -0.000492643
   4   C   :   -0.033549248   -0.011284564    0.000877947
   5   C   :    0.008636727   -0.013863639   -0.001188878
   6   H   :    0.000002608   -0.011941821   -0.000098420
   7   H   :   -0.026003852    0.017917572   -0.000568278
   8   H   :   -0.004442499   -0.001106541    0.000104562
   9   H   :    0.010351653   -0.027531870    0.000563486

Difference to translation invariance:
           :   -0.0001410999    0.0000255202    0.0000022695

Difference to rotation invariance:
           :    0.0000188800    0.0000086857    0.0000645180

Norm of the cartesian gradient     ...    0.0855423594
RMS gradient                       ...    0.0164626347
MAX gradient                       ...    0.0516758742

------------------------------------------------------------------------------
                  RELAXED CIS/TDA DENSITY POPULATION ANALYSIS
                                   IROOT 1
------------------------------------------------------------------------------
------------------------------------------------------------------------------
                           ORCA POPULATION ANALYSIS
------------------------------------------------------------------------------
Input electron density              ... _1_force.cisp
BaseName (.gbw .S,...)              ... _1_force

                    ********************************
                    * MULLIKEN POPULATION ANALYSIS *
                    ********************************

-----------------------
MULLIKEN ATOMIC CHARGES
-----------------------
   0 S :    0.177858
   1 C :   -0.227253
   2 C :   -0.023260
   3 C :   -0.043906
   4 C :   -0.216285
   5 H :    0.102597
   6 H :    0.069199
   7 H :    0.076955
   8 H :    0.084094
Sum of atomic charges:    0.0000000

--------------------------------
MULLIKEN REDUCED ORBITAL CHARGES
--------------------------------
  0 S s       :     5.828726  s :     5.828726
      pz      :     3.518106  p :     9.864607
      px      :     3.340262
      py      :     3.006239
      dz2     :     0.012724  d :     0.128809
      dxz     :     0.018101
      dyz     :     0.030751
      dx2y2   :     0.017347
      dxy     :     0.049886
  1 C s       :     3.169417  s :     3.169417
      pz      :     1.182975  p :     3.021897
      px      :     0.896215
      py      :     0.942707
      dz2     :     0.003254  d :     0.035938
      dxz     :     0.005771
      dyz     :     0.003549
      dx2y2   :     0.009551
      dxy     :     0.013814
  2 C s       :     3.136058  s :     3.136058
      pz      :     0.979472  p :     2.847723
      px      :     0.921962
      py      :     0.946290
      dz2     :     0.002956  d :     0.039479
      dxz     :     0.005499
      dyz     :     0.006253
      dx2y2   :     0.011762
      dxy     :     0.013010
  3 C s       :     3.127057  s :     3.127057
      pz      :     0.998696  p :     2.877152
      px      :     0.934379
      py      :     0.944077
      dz2     :     0.002975  d :     0.039696
      dxz     :     0.005851
      dyz     :     0.006085
      dx2y2   :     0.011832
      dxy     :     0.012954
  4 C s       :     3.153897  s :     3.153897
      pz      :     1.200764  p :     3.025782
      px      :     0.894255
      py      :     0.930763
      dz2     :     0.003338  d :     0.036606
      dxz     :     0.005809
      dyz     :     0.003547
      dx2y2   :     0.010020
      dxy     :     0.013892
  5 H s       :     0.876408  s :     0.876408
      pz      :     0.007113  p :     0.020995
      px      :     0.003206
      py      :     0.010677
  6 H s       :     0.908516  s :     0.908516
      pz      :     0.006640  p :     0.022285
      px      :     0.009383
      py      :     0.006262
  7 H s       :     0.901882  s :     0.901882
      pz      :     0.006205  p :     0.021162
      px      :     0.008953
      py      :     0.006004
  8 H s       :     0.892812  s :     0.892812
      pz      :     0.008305  p :     0.023095
      px      :     0.003781
      py      :     0.011008


                     *******************************
                     * LOEWDIN POPULATION ANALYSIS *
                     *******************************

----------------------
LOEWDIN ATOMIC CHARGES
----------------------
   0 S :    0.491797
   1 C :   -0.268772
   2 C :   -0.043352
   3 C :   -0.064534
   4 C :   -0.263745
   5 H :    0.040282
   6 H :    0.038304
   7 H :    0.045433
   8 H :    0.024587

-------------------------------
LOEWDIN REDUCED ORBITAL CHARGES
-------------------------------
  0 S s       :     5.521167  s :     5.521167
      pz      :     3.458948  p :     9.826247
      px      :     3.369263
      py      :     2.998035
      dz2     :     0.016153  d :     0.160790
      dxz     :     0.022526
      dyz     :     0.037135
      dx2y2   :     0.018808
      dxy     :     0.066168
  1 C s       :     2.937463  s :     2.937463
      pz      :     1.180594  p :     3.248200
      px      :     1.031980
      py      :     1.035626
      dz2     :     0.006262  d :     0.083109
      dxz     :     0.012337
      dyz     :     0.006467
      dx2y2   :     0.023072
      dxy     :     0.034970
  2 C s       :     2.869958  s :     2.869958
      pz      :     0.949503  p :     3.075020
      px      :     1.072822
      py      :     1.052695
      dz2     :     0.006632  d :     0.098374
      dxz     :     0.012114
      dyz     :     0.014144
      dx2y2   :     0.034427
      dxy     :     0.031057
  3 C s       :     2.872686  s :     2.872686
      pz      :     0.973598  p :     3.092835
      px      :     1.072337
      py      :     1.046900
      dz2     :     0.006610  d :     0.099013
      dxz     :     0.012909
      dyz     :     0.013834
      dx2y2   :     0.034457
      dxy     :     0.031202
  4 C s       :     2.918985  s :     2.918985
      pz      :     1.190333  p :     3.259019
      px      :     1.029559
      py      :     1.039126
      dz2     :     0.006576  d :     0.085741
      dxz     :     0.012624
      dyz     :     0.006604
      dx2y2   :     0.024033
      dxy     :     0.035903
  5 H s       :     0.882712  s :     0.882712
      pz      :     0.024092  p :     0.077006
      px      :     0.011051
      py      :     0.041862
  6 H s       :     0.880944  s :     0.880944
      pz      :     0.022160  p :     0.080751
      px      :     0.035224
      py      :     0.023368
  7 H s       :     0.880366  s :     0.880366
      pz      :     0.020208  p :     0.074201
      px      :     0.032211
      py      :     0.021783
  8 H s       :     0.887313  s :     0.887313
      pz      :     0.029524  p :     0.088100
      px      :     0.013678
      py      :     0.044898


                      *****************************
                      * MAYER POPULATION ANALYSIS *
                      *****************************

  NA   - Mulliken gross atomic population
  ZA   - Total nuclear charge
  QA   - Mulliken gross atomic charge
  VA   - Mayer's total valence
  BVA  - Mayer's bonded valence
  FA   - Mayer's free valence

  ATOM       NA         ZA         QA         VA         BVA        FA
  0 S     15.8221    16.0000     0.1779     2.7137     2.0996     0.6141
  1 C      6.2273     6.0000    -0.2273     3.7572     3.2248     0.5325
  2 C      6.0233     6.0000    -0.0233     3.9192     3.3922     0.5271
  3 C      6.0439     6.0000    -0.0439     3.9137     3.4212     0.4925
  4 C      6.2163     6.0000    -0.2163     3.7598     3.2241     0.5357
  5 H      0.8974     1.0000     0.1026     0.9890     0.9830     0.0060
  6 H      0.9308     1.0000     0.0692     0.9897     0.9822     0.0075
  7 H      0.9230     1.0000     0.0770     0.9862     0.9789     0.0073
  8 H      0.9159     1.0000     0.0841     0.9967     0.9898     0.0069

  Mayer bond orders larger than 0.100000
B(  0-S ,  1-C ) :   1.0253 B(  0-S ,  4-C ) :   0.9911 B(  1-C ,  2-C ) :   1.2362 
B(  1-C ,  5-H ) :   0.9593 B(  2-C ,  3-C ) :   1.1357 B(  2-C ,  6-H ) :   0.9844 
B(  3-C ,  4-C ) :   1.2652 B(  3-C ,  7-H ) :   0.9755 B(  4-C ,  8-H ) :   0.9705 



-------
TIMINGS
-------

Total TD-DFT gradient time         ...       14.453 sec

Fock matrix formation       ....       3.020 sec  ( 20.9%)
  Coulomb formation         ....       2.324 sec  ( 77.0% of F)
  RI-J                      ....       0.629 sec  ( 20.8% of F)
  Chain of spheres X        ....       1.695 sec  ( 56.1% of F)
  XC integration            ....       0.696 sec  ( 23.0% of F)
Z-vector equation           ....       3.875 sec  ( 26.8%)
One electron gradient       ....       0.030 sec  (  0.2%)
Prescreening matrices       ....       0.072 sec  (  0.5%)
RI-J Coulomb gradient       ....       0.717 sec  (  5.0%)
COSX gradient               ....       1.591 sec  ( 11.0%)
XC gradient                 ....       4.417 sec  ( 30.6%)

Maximum memory used throughout the entire SCFGRAD-calculation: 114.8 MB

                            ***************************************
                            *     ORCA property calculations      *
                            ***************************************

                                    ---------------------
                                    Active property flags
                                    ---------------------
   (+) Dipole Moment


------------------------------------------------------------------------------
                       ORCA ELECTRIC PROPERTIES CALCULATION
------------------------------------------------------------------------------

Dipole Moment Calculation                       ... on
Quadrupole Moment Calculation                   ... off
Polarizability Calculation                      ... off
GBWName                                         ... _1_force.gbw
Electron density                                ... _1_force.scfp
The origin for moment calculation is the CENTER OF MASS  = ( 0.011082, -0.000003 -0.000941)

-------------
DIPOLE MOMENT
-------------
                                X             Y             Z
Electronic contribution:     -3.61202       0.01402       0.01417
Nuclear contribution   :      3.75224      -0.01311      -0.02379
                        -----------------------------------------
Total Dipole Moment    :      0.14021       0.00091      -0.00962
                        -----------------------------------------
Magnitude (a.u.)       :      0.14055
Magnitude (Debye)      :      0.35724



--------------------
Rotational spectrum 
--------------------
 
Rotational constants in cm-1:     0.267104     0.177896     0.106781 
Rotational constants in MHz :  8007.590808  5333.201145  3201.228046 

 Dipole components along the rotational axes: 
x,y,z [a.u.] :    -0.140210     0.000761    -0.009683 
x,y,z [Debye]:    -0.356387     0.001933    -0.024613 

 

                        *** CIS RELAXED DENSITY ***

------------------------------------------------------------------------------
                       ORCA ELECTRIC PROPERTIES CALCULATION
------------------------------------------------------------------------------

Dipole Moment Calculation                       ... on
Quadrupole Moment Calculation                   ... off
Polarizability Calculation                      ... off
GBWName                                         ... _1_force.gbw
Electron density                                ... _1_force.cisp
The origin for moment calculation is the CENTER OF MASS  = ( 0.011082, -0.000003 -0.000941)

-------------
DIPOLE MOMENT
-------------
                                X             Y             Z
Electronic contribution:     -3.61163      -0.02739       0.01152
Nuclear contribution   :      3.75224      -0.01311      -0.02379
                        -----------------------------------------
Total Dipole Moment    :      0.14060      -0.04051      -0.01227
                        -----------------------------------------
Magnitude (a.u.)       :      0.14684
Magnitude (Debye)      :      0.37323



--------------------
Rotational spectrum 
--------------------
 
Rotational constants in cm-1:     0.267104     0.177896     0.106781 
Rotational constants in MHz :  8007.590808  5333.201145  3201.228046 

 Dipole components along the rotational axes: 
x,y,z [a.u.] :    -0.140556    -0.040652    -0.012341 
x,y,z [Debye]:    -0.357264    -0.103328    -0.031368 

 

Timings for individual modules:

Sum of individual times         ...       39.788 sec (=   0.663 min)
GTO integral calculation        ...        2.073 sec (=   0.035 min)   5.2 %
Relativistic integrals          ...        1.875 sec (=   0.031 min)   4.7 %
SCF iterations                  ...       12.670 sec (=   0.211 min)  31.8 %
CIS module                      ...        6.945 sec (=   0.116 min)  17.5 %
SCF Gradient evaluation         ...       16.224 sec (=   0.270 min)  40.8 %
                             ****ORCA TERMINATED NORMALLY****
TOTAL RUN TIME: 0 days 0 hours 0 minutes 41 seconds 849 msec
